
     Program PWSCF v.7.1 starts on 29Jan2024 at 21:38:52 

     This program is part of the open-source Quantum ESPRESSO suite
     for quantum simulation of materials; please cite
         "P. Giannozzi et al., J. Phys.:Condens. Matter 21 395502 (2009);
         "P. Giannozzi et al., J. Phys.:Condens. Matter 29 465901 (2017);
         "P. Giannozzi et al., J. Chem. Phys. 152 154105 (2020);
          URL http://www.quantum-espresso.org", 
     in publications or presentations arising from this work. More details at
     http://www.quantum-espresso.org/quote

     Parallel version (MPI), running on    48 processors

     MPI processes distributed on     1 nodes
     718778 MiB available memory on the printing compute node when the environment starts

     Reading input from espresso.pwi
Warning: card &CELL ignored
Warning: card / ignored

     Current dimensions of program PWSCF are:
     Max number of different atomic species (ntypx) = 10
     Max number of k-points (npk) =  40000
     Max angular momentum in pseudopotentials (lmaxx) =  4
     file Ni.pbe-n-kjpaw_psl.1.0.0.UPF: wavefunction(s)  4S 3D renormalized
     file C.pbe-n-kjpaw_psl.1.0.0.UPF: wavefunction(s)  2S 2P renormalized
     file H.pbe-kjpaw_psl.1.0.0.UPF: wavefunction(s)  1S renormalized

     R & G space division:  proc/nbgrp/npool/nimage =      48
     Subspace diagonalization in iterative solution of the eigenvalue problem:
     one sub-group per band group will be used
     custom distributed-memory algorithm (size of sub-group:  2*  2 procs)


     Parallelization info
     --------------------
     sticks:   dense  smooth     PW     G-vecs:    dense   smooth      PW
     Min          46      46     12                 5706     5706     828
     Max          47      47     13                 5716     5716     855
     Sum        2209    2209    595               274027   274027   40221

     Using Slab Decomposition



     bravais-lattice index     =            0
     lattice parameter (alat)  =      14.1107  a.u.
     unit-cell volume          =    8015.0090 (a.u.)^3
     number of atoms/cell      =           40
     number of atomic types    =            3
     number of electrons       =       367.00
     number of Kohn-Sham states=          221
     kinetic-energy cutoff     =      40.0000  Ry
     charge density cutoff     =     160.0000  Ry
     scf convergence threshold =      1.0E-06
     mixing beta               =       0.3000
     number of iterations used =            8  local-TF  mixing
     Exchange-correlation= SLA  PW   PBX  PBC
                           (   1   4   3   4   0   0   0)

     celldm(1)=  14.110675  celldm(2)=   0.000000  celldm(3)=   0.000000
     celldm(4)=   0.000000  celldm(5)=   0.000000  celldm(6)=   0.000000

     crystal axes: (cart. coord. in units of alat)
               a(1) = (   1.000000   0.000000   0.000000 )  
               a(2) = (   0.500000   0.866025   0.000000 )  
               a(3) = (   0.000000   0.000000   3.294049 )  

     reciprocal axes: (cart. coord. in units 2 pi/alat)
               b(1) = (  1.000000 -0.577350  0.000000 )  
               b(2) = (  0.000000  1.154701  0.000000 )  
               b(3) = (  0.000000  0.000000  0.303578 )  


     PseudoPot. # 1 for Ni read from file:
     /users/kbadger1/espresso/pseudo/pslibrary.1.0.0/pbe/PSEUDOPOTENTIALS/Ni.pbe-n-kjpaw_psl.1.0.0.UPF
     MD5 check sum: f03198515d032a34391d3662262cc142
     Pseudo is Projector augmented-wave + core cor, Zval = 10.0
     Generated using 'atomic' code by A. Dal Corso  v.7.0
     Shape of augmentation charge: PSQ
     Using radial grid of 1195 points,  6 beta functions with: 
                l(1) =   0
                l(2) =   0
                l(3) =   1
                l(4) =   1
                l(5) =   2
                l(6) =   2
     Q(r) pseudized with 0 coefficients 


     PseudoPot. # 2 for C  read from file:
     /users/kbadger1/espresso/pseudo/pslibrary.1.0.0/pbe/PSEUDOPOTENTIALS/C.pbe-n-kjpaw_psl.1.0.0.UPF
     MD5 check sum: 6408e75cdba28732cea38a4db8498ce4
     Pseudo is Projector augmented-wave + core cor, Zval =  4.0
     Generated using 'atomic' code by A. Dal Corso  v.7.0
     Shape of augmentation charge: PSQ
     Using radial grid of 1073 points,  4 beta functions with: 
                l(1) =   0
                l(2) =   0
                l(3) =   1
                l(4) =   1
     Q(r) pseudized with 0 coefficients 


     PseudoPot. # 3 for H  read from file:
     /users/kbadger1/espresso/pseudo/pslibrary.1.0.0/pbe/PSEUDOPOTENTIALS/H.pbe-kjpaw_psl.1.0.0.UPF
     MD5 check sum: fe4c6fa958fa6d3815bf5d2419cbf1df
     Pseudo is Projector augmented-wave, Zval =  1.0
     Generated using 'atomic' code by A. Dal Corso  v.7.0
     Shape of augmentation charge: PSQ
     Using radial grid of  929 points,  2 beta functions with: 
                l(1) =   0
                l(2) =   0
     Q(r) pseudized with 0 coefficients 


     atomic species   valence    mass     pseudopotential
        Ni            10.00    58.69340     Ni( 1.00)
        C              4.00    12.01100     C ( 1.00)
        H              1.00     1.00800     H ( 1.00)

     Starting magnetic structure 
     atomic species   magnetization
        Ni           0.600
        C            0.600
        H            0.600

     No symmetry found



   Cartesian axes

     site n.     atom                  positions (alat units)
         1           Ni  tau(   1) = (   0.0000000   0.0000000   1.1383348  )
         2           Ni  tau(   2) = (   0.3333333   0.0000000   1.1383348  )
         3           Ni  tau(   3) = (   0.6666667   0.0000000   1.1383348  )
         4           Ni  tau(   4) = (   0.1666667   0.2886751   1.1383348  )
         5           Ni  tau(   5) = (   0.5000000   0.2886751   1.1383348  )
         6           Ni  tau(   6) = (   0.8333333   0.2886751   1.1383348  )
         7           Ni  tau(   7) = (   0.3333333   0.5773503   1.1383348  )
         8           Ni  tau(   8) = (   0.6666667   0.5773503   1.1383348  )
         9           Ni  tau(   9) = (   1.0000000   0.5773503   1.1383348  )
        10           Ni  tau(  10) = (   0.1666667   0.0962250   1.4105003  )
        11           Ni  tau(  11) = (   0.5000000   0.0962250   1.4105003  )
        12           Ni  tau(  12) = (   0.8333333   0.0962250   1.4105003  )
        13           Ni  tau(  13) = (   0.3333333   0.3849002   1.4105003  )
        14           Ni  tau(  14) = (   0.6666667   0.3849002   1.4105003  )
        15           Ni  tau(  15) = (   1.0000000   0.3849002   1.4105003  )
        16           Ni  tau(  16) = (   0.5000000   0.6735753   1.4105003  )
        17           Ni  tau(  17) = (   0.8333333   0.6735753   1.4105003  )
        18           Ni  tau(  18) = (   1.1666667   0.6735753   1.4105003  )
        19           Ni  tau(  19) = (   0.0005921   0.1921254   1.6777386  )
        20           Ni  tau(  20) = (   0.3327474   0.1921222   1.6777541  )
        21           Ni  tau(  21) = (   0.6666584   0.1916729   1.6755078  )
        22           Ni  tau(  22) = (   0.1666700   0.4793611   1.6795552  )
        23           Ni  tau(  23) = (   0.4993116   0.4815034   1.6755076  )
        24           Ni  tau(  24) = (   0.8340184   0.4815131   1.6755003  )
        25           Ni  tau(  25) = (   0.3348499   0.7706720   1.6795588  )
        26           Ni  tau(  26) = (   0.6666739   0.7704815   1.6777485  )
        27           Ni  tau(  27) = (   0.9984778   0.7706773   1.6795609  )
        28           Ni  tau(  28) = (  -0.0019101  -0.0011020   1.9510477  )
        29           Ni  tau(  29) = (   0.3352527  -0.0010950   1.9510397  )
        30           Ni  tau(  30) = (   0.6666623   0.0000372   1.9435669  )
        31           Ni  tau(  31) = (   0.1666782   0.2908879   1.9510346  )
        32           Ni  tau(  32) = (   0.5038389   0.2908921   1.9417782  )
        33           Ni  tau(  33) = (   0.8294803   0.2908949   1.9417994  )
        34           Ni  tau(  34) = (   0.3333624   0.5773274   1.9435608  )
        35           Ni  tau(  35) = (   0.6666609   0.5729050   1.9417969  )
        36           Ni  tau(  36) = (   0.9999763   0.5773374   1.9435590  )
        37           C   tau(  37) = (   0.3962706   0.1182933   2.4757334  )
        38           H   tau(  38) = (   0.2922222   0.2003135   2.5463868  )
        39           H   tau(  39) = (   0.5205055   0.1279176   2.5595099  )
        40           H   tau(  40) = (   0.3504563  -0.0243419   2.4858416  )

     --------------------------------------------
     DFT-D3 Dispersion Correction (3-body terms):
     --------------------------------------------
       Reference C6 values for interpolation: 

         atom   Coordination number   C6
         H          0.912             6.05
         H          0.000            15.18
         C          0.000            98.23
         C          0.987            86.49
         C          1.998            58.72
         C          2.999            51.56
         C          3.984            36.41
         Ni         0.000          1149.49
         Ni         1.794           356.66
         Ni         6.546           257.56
         Ni         6.292           283.75

       Values used:

         atom   Coordination number  R0_AB[au]  C6      C8
         Ni         6.626            3.162    267.52  22416.52
         Ni         6.626            3.162    267.52  22416.52
         Ni         6.626            3.162    267.52  22416.57
         Ni         6.626            3.162    267.52  22416.52
         Ni         6.626            3.162    267.52  22416.37
         Ni         6.626            3.162    267.52  22416.37
         Ni         6.626            3.162    267.52  22416.57
         Ni         6.626            3.162    267.52  22416.37
         Ni         6.626            3.162    267.52  22416.57
         Ni         9.003            3.162    257.69  21592.69
         Ni         8.999            3.162    257.69  21592.77
         Ni         8.999            3.162    257.69  21592.77
         Ni         9.000            3.162    257.69  21592.77
         Ni         9.029            3.162    257.68  21592.14
         Ni         9.000            3.162    257.69  21592.76
         Ni         8.999            3.162    257.69  21592.77
         Ni         8.999            3.162    257.69  21592.77
         Ni         8.923            3.162    257.71  21594.57
         Ni         9.043            3.162    257.68  21591.87
         Ni         9.044            3.162    257.68  21591.85
         Ni         9.169            3.162    257.66  21589.65
         Ni         9.079            3.162    257.67  21591.17
         Ni         9.169            3.162    257.66  21589.64
         Ni         9.169            3.162    257.66  21589.65
         Ni         9.078            3.162    257.67  21591.19
         Ni         9.042            3.162    257.68  21591.88
         Ni         9.078            3.162    257.67  21591.18
         Ni         6.497            3.162    269.18  22555.48
         Ni         6.499            3.162    269.16  22553.43
         Ni         6.822            3.162    265.20  22222.08
         Ni         6.499            3.162    269.16  22553.99
         Ni         6.846            3.162    264.95  22200.51
         Ni         6.844            3.162    264.97  22202.41
         Ni         6.822            3.162    265.20  22222.11
         Ni         6.844            3.162    264.97  22202.39
         Ni         6.822            3.162    265.21  22222.38
         C          2.969            2.750     51.45   1488.09
         H          0.989            2.062      6.19     74.84
         H          0.989            2.062      6.19     74.84
         H          0.989            2.062      6.19     74.84

         Molecular C6 ( Ry / a.u.^6 ) =    356944.15


     number of k points=    13  Marzari-Vanderbilt smearing, width (Ry)=  0.0100
                       cart. coord. in units 2pi/alat
        k(    1) = (   0.0000000   0.0000000   0.0000000), wk =   0.0400000
        k(    2) = (   0.0000000   0.2309401   0.0000000), wk =   0.0800000
        k(    3) = (   0.0000000   0.4618802   0.0000000), wk =   0.0800000
        k(    4) = (   0.2000000  -0.1154701   0.0000000), wk =   0.0800000
        k(    5) = (   0.2000000   0.1154701   0.0000000), wk =   0.0800000
        k(    6) = (   0.2000000   0.3464102   0.0000000), wk =   0.0800000
        k(    7) = (   0.2000000  -0.5773503   0.0000000), wk =   0.0800000
        k(    8) = (   0.2000000  -0.3464102   0.0000000), wk =   0.0800000
        k(    9) = (   0.4000000  -0.2309401   0.0000000), wk =   0.0800000
        k(   10) = (   0.4000000   0.0000000   0.0000000), wk =   0.0800000
        k(   11) = (   0.4000000   0.2309401   0.0000000), wk =   0.0800000
        k(   12) = (   0.4000000  -0.6928203   0.0000000), wk =   0.0800000
        k(   13) = (   0.4000000  -0.4618802   0.0000000), wk =   0.0800000

     Dense  grid:   274027 G-vectors     FFT dimensions: (  60,  60, 192)

     Estimated max dynamical RAM per process >     106.96 MB

     Estimated total dynamical RAM >       5.01 GB

     Check: negative core charge=   -0.000012
     Generating pointlists ...
     new r_m :   0.1343 (alat units)  1.8954 (a.u.) for type    1
     new r_m :   0.0619 (alat units)  0.8740 (a.u.) for type    2
     new r_m :   0.0619 (alat units)  0.8740 (a.u.) for type    3

     Initial potential from superposition of free atoms

     starting charge     366.9909, renormalised to     367.0000

     negative rho (up, down):  1.109E-02 2.773E-03
     Starting wfcs are  331 randomized atomic wfcs
     Checking if some PAW data can be deallocated... 

     total cpu time spent up to now is        9.5 secs

     per-process dynamical memory:   224.0 Mb

     Self-consistent Calculation

     iteration #  1     ecut=    40.00 Ry     beta= 0.30
     Davidson diagonalization with overlap
     ethr =  1.00E-02,  avg # of iterations =  2.0

     negative rho (up, down):  6.053E-03 8.715E-04

     total cpu time spent up to now is       27.8 secs

     total energy              =   -6700.36747410 Ry
     estimated scf accuracy    <      21.01345108 Ry

     total magnetization       =    57.33 Bohr mag/cell
     absolute magnetization    =    57.40 Bohr mag/cell

     iteration #  2     ecut=    40.00 Ry     beta= 0.30
     Davidson diagonalization with overlap
     ethr =  5.73E-03,  avg # of iterations =  1.0

     negative rho (up, down):  4.058E-03 5.602E-04

     total cpu time spent up to now is       42.7 secs

     total energy              =   -6702.82694302 Ry
     estimated scf accuracy    <      12.40043525 Ry

     total magnetization       =    48.77 Bohr mag/cell
     absolute magnetization    =    48.90 Bohr mag/cell

     iteration #  3     ecut=    40.00 Ry     beta= 0.30
     Davidson diagonalization with overlap
     ethr =  3.38E-03,  avg # of iterations =  1.0

     negative rho (up, down):  4.829E-04 2.168E-04

     total cpu time spent up to now is       57.4 secs

     total energy              =   -6706.03727739 Ry
     estimated scf accuracy    <      17.02715246 Ry

     total magnetization       =    45.06 Bohr mag/cell
     absolute magnetization    =    45.62 Bohr mag/cell

     iteration #  4     ecut=    40.00 Ry     beta= 0.30
     Davidson diagonalization with overlap
     ethr =  3.38E-03,  avg # of iterations =  1.5

     negative rho (up, down):  4.382E-04 2.026E-04

     total cpu time spent up to now is       72.9 secs

     total energy              =   -6706.98758633 Ry
     estimated scf accuracy    <       5.76662427 Ry

     total magnetization       =    23.99 Bohr mag/cell
     absolute magnetization    =    29.54 Bohr mag/cell

     iteration #  5     ecut=    40.00 Ry     beta= 0.30
     Davidson diagonalization with overlap
     ethr =  1.57E-03,  avg # of iterations =  1.2

     negative rho (up, down):  4.117E-04 1.865E-04

     total cpu time spent up to now is       87.8 secs

     total energy              =   -6706.99438147 Ry
     estimated scf accuracy    <       3.33245931 Ry

     total magnetization       =    23.62 Bohr mag/cell
     absolute magnetization    =    29.02 Bohr mag/cell

     iteration #  6     ecut=    40.00 Ry     beta= 0.30
     Davidson diagonalization with overlap
     ethr =  9.08E-04,  avg # of iterations =  1.0

     negative rho (up, down):  3.617E-04 1.510E-04

     total cpu time spent up to now is      102.5 secs

     total energy              =   -6706.96241181 Ry
     estimated scf accuracy    <       3.17457935 Ry

     total magnetization       =    23.79 Bohr mag/cell
     absolute magnetization    =    29.01 Bohr mag/cell

     iteration #  7     ecut=    40.00 Ry     beta= 0.30
     Davidson diagonalization with overlap
     ethr =  8.65E-04,  avg # of iterations =  1.0

     negative rho (up, down):  2.107E-04 8.200E-05

     total cpu time spent up to now is      117.0 secs

     total energy              =   -6706.85036786 Ry
     estimated scf accuracy    <       2.18642676 Ry

     total magnetization       =    24.79 Bohr mag/cell
     absolute magnetization    =    29.58 Bohr mag/cell

     iteration #  8     ecut=    40.00 Ry     beta= 0.30
     Davidson diagonalization with overlap
     ethr =  5.96E-04,  avg # of iterations =  2.0

     negative rho (up, down):  1.839E-04 7.362E-05

     total cpu time spent up to now is      133.5 secs

     total energy              =   -6706.93240867 Ry
     estimated scf accuracy    <       0.86738351 Ry

     total magnetization       =    26.24 Bohr mag/cell
     absolute magnetization    =    30.13 Bohr mag/cell

     iteration #  9     ecut=    40.00 Ry     beta= 0.30
     Davidson diagonalization with overlap
     ethr =  2.36E-04,  avg # of iterations =  1.0

     negative rho (up, down):  1.713E-04 6.815E-05

     total cpu time spent up to now is      148.2 secs

     total energy              =   -6706.90865668 Ry
     estimated scf accuracy    <       0.72692103 Ry

     total magnetization       =    25.88 Bohr mag/cell
     absolute magnetization    =    29.71 Bohr mag/cell

     iteration # 10     ecut=    40.00 Ry     beta= 0.30
     Davidson diagonalization with overlap
     ethr =  1.98E-04,  avg # of iterations =  1.9

     negative rho (up, down):  1.537E-04 5.589E-05

     total cpu time spent up to now is      164.2 secs

     total energy              =   -6706.86251873 Ry
     estimated scf accuracy    <       0.26180268 Ry

     total magnetization       =    25.82 Bohr mag/cell
     absolute magnetization    =    29.61 Bohr mag/cell

     iteration # 11     ecut=    40.00 Ry     beta= 0.30
     Davidson diagonalization with overlap
     ethr =  7.13E-05,  avg # of iterations =  4.0

     negative rho (up, down):  1.334E-04 4.361E-05

     total cpu time spent up to now is      182.1 secs

     total energy              =   -6706.89615604 Ry
     estimated scf accuracy    <       0.94023188 Ry

     total magnetization       =    24.39 Bohr mag/cell
     absolute magnetization    =    28.13 Bohr mag/cell

     iteration # 12     ecut=    40.00 Ry     beta= 0.30
     Davidson diagonalization with overlap
     ethr =  7.13E-05,  avg # of iterations =  1.5

     negative rho (up, down):  1.241E-04 4.291E-05

     total cpu time spent up to now is      197.4 secs

     total energy              =   -6706.85963181 Ry
     estimated scf accuracy    <       0.84312214 Ry

     total magnetization       =    24.81 Bohr mag/cell
     absolute magnetization    =    28.25 Bohr mag/cell

     iteration # 13     ecut=    40.00 Ry     beta= 0.30
     Davidson diagonalization with overlap
     ethr =  7.13E-05,  avg # of iterations =  1.8

     negative rho (up, down):  1.013E-04 3.294E-05

     total cpu time spent up to now is      213.3 secs

     total energy              =   -6706.87495554 Ry
     estimated scf accuracy    <       0.09924444 Ry

     total magnetization       =    25.09 Bohr mag/cell
     absolute magnetization    =    29.03 Bohr mag/cell

     iteration # 14     ecut=    40.00 Ry     beta= 0.30
     Davidson diagonalization with overlap
     ethr =  2.70E-05,  avg # of iterations =  2.1

     negative rho (up, down):  9.644E-05 3.012E-05

     total cpu time spent up to now is      229.7 secs

     total energy              =   -6706.87787888 Ry
     estimated scf accuracy    <       0.32930978 Ry

     total magnetization       =    24.65 Bohr mag/cell
     absolute magnetization    =    28.60 Bohr mag/cell

     iteration # 15     ecut=    40.00 Ry     beta= 0.30
     Davidson diagonalization with overlap
     ethr =  2.70E-05,  avg # of iterations =  1.8

     negative rho (up, down):  9.794E-05 2.998E-05

     total cpu time spent up to now is      245.6 secs

     total energy              =   -6706.87858262 Ry
     estimated scf accuracy    <       0.10189351 Ry

     total magnetization       =    24.58 Bohr mag/cell
     absolute magnetization    =    29.46 Bohr mag/cell

     iteration # 16     ecut=    40.00 Ry     beta= 0.30
     Davidson diagonalization with overlap
     c_bands:  2 eigenvalues not converged
     ethr =  2.70E-05,  avg # of iterations =  2.3

     negative rho (up, down):  1.098E-04 3.525E-05

     total cpu time spent up to now is      261.7 secs

     total energy              =   -6706.89088373 Ry
     estimated scf accuracy    <       0.04948471 Ry

     total magnetization       =    24.72 Bohr mag/cell
     absolute magnetization    =    29.72 Bohr mag/cell

     iteration # 17     ecut=    40.00 Ry     beta= 0.30
     Davidson diagonalization with overlap
     ethr =  1.35E-05,  avg # of iterations =  2.7

     negative rho (up, down):  2.717E-03 1.424E-03

     total cpu time spent up to now is      278.7 secs

     total energy              =   -6706.89003847 Ry
     estimated scf accuracy    <       0.03976917 Ry

     total magnetization       =    24.62 Bohr mag/cell
     absolute magnetization    =    29.93 Bohr mag/cell

     iteration # 18     ecut=    40.00 Ry     beta= 0.30
     Davidson diagonalization with overlap
     ethr =  1.08E-05,  avg # of iterations =  4.7

     negative rho (up, down):  1.075E-02 5.195E-03

     total cpu time spent up to now is      297.2 secs

     total energy              =   -6706.88891932 Ry
     estimated scf accuracy    <       0.02654137 Ry

     total magnetization       =    24.52 Bohr mag/cell
     absolute magnetization    =    30.11 Bohr mag/cell

     iteration # 19     ecut=    40.00 Ry     beta= 0.30
     Davidson diagonalization with overlap
     ethr =  7.23E-06,  avg # of iterations =  3.7

     negative rho (up, down):  1.385E-02 7.052E-03

     total cpu time spent up to now is      314.8 secs

     total energy              =   -6706.88782315 Ry
     estimated scf accuracy    <       0.02295061 Ry

     total magnetization       =    24.56 Bohr mag/cell
     absolute magnetization    =    30.23 Bohr mag/cell

     iteration # 20     ecut=    40.00 Ry     beta= 0.30
     Davidson diagonalization with overlap
     ethr =  6.25E-06,  avg # of iterations =  1.8

     negative rho (up, down):  1.359E-02 8.439E-03

     total cpu time spent up to now is      330.6 secs

     total energy              =   -6706.88753212 Ry
     estimated scf accuracy    <       0.01944982 Ry

     total magnetization       =    24.57 Bohr mag/cell
     absolute magnetization    =    30.28 Bohr mag/cell

     iteration # 21     ecut=    40.00 Ry     beta= 0.30
     Davidson diagonalization with overlap
     c_bands:  2 eigenvalues not converged
     ethr =  5.30E-06,  avg # of iterations =  3.3

     negative rho (up, down):  1.528E-02 1.393E-02

     total cpu time spent up to now is      347.7 secs

     total energy              =   -6706.88552891 Ry
     estimated scf accuracy    <       0.01646459 Ry

     total magnetization       =    24.62 Bohr mag/cell
     absolute magnetization    =    30.33 Bohr mag/cell

     iteration # 22     ecut=    40.00 Ry     beta= 0.30
     Davidson diagonalization with overlap
     c_bands:  1 eigenvalues not converged
     c_bands:  1 eigenvalues not converged
     c_bands:  2 eigenvalues not converged
     c_bands:  1 eigenvalues not converged
     ethr =  4.49E-06,  avg # of iterations =  5.1

     negative rho (up, down):  1.983E-02 1.882E-02

     total cpu time spent up to now is      366.7 secs

     total energy              =   -6706.88509879 Ry
     estimated scf accuracy    <       0.01057903 Ry

     total magnetization       =    24.73 Bohr mag/cell
     absolute magnetization    =    30.42 Bohr mag/cell

     iteration # 23     ecut=    40.00 Ry     beta= 0.30
     Davidson diagonalization with overlap
     c_bands:  2 eigenvalues not converged
     c_bands:  2 eigenvalues not converged
     c_bands:  2 eigenvalues not converged
     c_bands:  3 eigenvalues not converged
     c_bands:  3 eigenvalues not converged
     ethr =  2.88E-06,  avg # of iterations =  5.6

     negative rho (up, down):  1.612E-02 1.501E-02

     total cpu time spent up to now is      385.9 secs

     total energy              =   -6706.88547423 Ry
     estimated scf accuracy    <       0.00649343 Ry

     total magnetization       =    24.77 Bohr mag/cell
     absolute magnetization    =    30.45 Bohr mag/cell

     iteration # 24     ecut=    40.00 Ry     beta= 0.30
     Davidson diagonalization with overlap
     c_bands:  1 eigenvalues not converged
     c_bands:  2 eigenvalues not converged
     c_bands:  2 eigenvalues not converged
     ethr =  1.77E-06,  avg # of iterations =  6.7

     negative rho (up, down):  2.203E-02 2.117E-02

     total cpu time spent up to now is      405.8 secs

     total energy              =   -6706.88508925 Ry
     estimated scf accuracy    <       0.00573924 Ry

     total magnetization       =    24.75 Bohr mag/cell
     absolute magnetization    =    30.41 Bohr mag/cell

     iteration # 25     ecut=    40.00 Ry     beta= 0.30
     Davidson diagonalization with overlap
     c_bands:  1 eigenvalues not converged
     ethr =  1.56E-06,  avg # of iterations =  5.3

     negative rho (up, down):  1.863E-02 1.728E-02

     total cpu time spent up to now is      424.9 secs

     total energy              =   -6706.88555989 Ry
     estimated scf accuracy    <       0.00464661 Ry

     total magnetization       =    24.76 Bohr mag/cell
     absolute magnetization    =    30.42 Bohr mag/cell

     iteration # 26     ecut=    40.00 Ry     beta= 0.30
     Davidson diagonalization with overlap
     c_bands:  1 eigenvalues not converged
     ethr =  1.27E-06,  avg # of iterations =  2.7

     negative rho (up, down):  1.541E-02 1.399E-02

     total cpu time spent up to now is      441.6 secs

     total energy              =   -6706.88552674 Ry
     estimated scf accuracy    <       0.00519733 Ry

     total magnetization       =    24.72 Bohr mag/cell
     absolute magnetization    =    30.41 Bohr mag/cell

     iteration # 27     ecut=    40.00 Ry     beta= 0.30
     Davidson diagonalization with overlap
     c_bands:  1 eigenvalues not converged
     ethr =  1.27E-06,  avg # of iterations =  3.2

     negative rho (up, down):  1.289E-02 1.136E-02

     total cpu time spent up to now is      458.9 secs

     total energy              =   -6706.88596527 Ry
     estimated scf accuracy    <       0.00071064 Ry

     total magnetization       =    24.67 Bohr mag/cell
     absolute magnetization    =    30.34 Bohr mag/cell

     iteration # 28     ecut=    40.00 Ry     beta= 0.30
     Davidson diagonalization with overlap
     c_bands:  1 eigenvalues not converged
     ethr =  1.94E-07,  avg # of iterations =  5.6

     negative rho (up, down):  1.019E-02 8.495E-03

     total cpu time spent up to now is      478.0 secs

     total energy              =   -6706.88628511 Ry
     estimated scf accuracy    <       0.00050766 Ry

     total magnetization       =    24.66 Bohr mag/cell
     absolute magnetization    =    30.32 Bohr mag/cell

     iteration # 29     ecut=    40.00 Ry     beta= 0.30
     Davidson diagonalization with overlap
     c_bands:  1 eigenvalues not converged
     ethr =  1.38E-07,  avg # of iterations =  5.8

     negative rho (up, down):  1.112E-02 9.405E-03

     total cpu time spent up to now is      497.1 secs

     total energy              =   -6706.88632824 Ry
     estimated scf accuracy    <       0.00016278 Ry

     total magnetization       =    24.64 Bohr mag/cell
     absolute magnetization    =    30.32 Bohr mag/cell

     iteration # 30     ecut=    40.00 Ry     beta= 0.30
     Davidson diagonalization with overlap
     ethr =  4.44E-08,  avg # of iterations =  3.3

     negative rho (up, down):  1.015E-02 8.434E-03

     total cpu time spent up to now is      514.3 secs

     total energy              =   -6706.88635706 Ry
     estimated scf accuracy    <       0.00020416 Ry

     total magnetization       =    24.65 Bohr mag/cell
     absolute magnetization    =    30.32 Bohr mag/cell

     iteration # 31     ecut=    40.00 Ry     beta= 0.30
     Davidson diagonalization with overlap
     ethr =  4.44E-08,  avg # of iterations =  2.1

     negative rho (up, down):  1.007E-02 8.345E-03

     total cpu time spent up to now is      530.8 secs

     total energy              =   -6706.88637071 Ry
     estimated scf accuracy    <       0.00005712 Ry

     total magnetization       =    24.64 Bohr mag/cell
     absolute magnetization    =    30.32 Bohr mag/cell

     iteration # 32     ecut=    40.00 Ry     beta= 0.30
     Davidson diagonalization with overlap
     ethr =  1.56E-08,  avg # of iterations =  3.4

     negative rho (up, down):  9.870E-03 8.150E-03

     total cpu time spent up to now is      548.3 secs

     total energy              =   -6706.88638095 Ry
     estimated scf accuracy    <       0.00005572 Ry

     total magnetization       =    24.64 Bohr mag/cell
     absolute magnetization    =    30.32 Bohr mag/cell

     iteration # 33     ecut=    40.00 Ry     beta= 0.30
     Davidson diagonalization with overlap
     ethr =  1.52E-08,  avg # of iterations =  2.0

     negative rho (up, down):  9.666E-03 7.950E-03

     total cpu time spent up to now is      564.6 secs

     total energy              =   -6706.88638359 Ry
     estimated scf accuracy    <       0.00004469 Ry

     total magnetization       =    24.65 Bohr mag/cell
     absolute magnetization    =    30.32 Bohr mag/cell

     iteration # 34     ecut=    40.00 Ry     beta= 0.30
     Davidson diagonalization with overlap
     ethr =  1.22E-08,  avg # of iterations =  2.0

     negative rho (up, down):  9.416E-03 7.710E-03

     total cpu time spent up to now is      580.8 secs

     total energy              =   -6706.88638274 Ry
     estimated scf accuracy    <       0.00002582 Ry

     total magnetization       =    24.65 Bohr mag/cell
     absolute magnetization    =    30.33 Bohr mag/cell

     iteration # 35     ecut=    40.00 Ry     beta= 0.30
     Davidson diagonalization with overlap
     c_bands:  1 eigenvalues not converged
     ethr =  7.04E-09,  avg # of iterations =  2.7

     negative rho (up, down):  9.225E-03 7.554E-03

     total cpu time spent up to now is      597.7 secs

     total energy              =   -6706.88638281 Ry
     estimated scf accuracy    <       0.00002099 Ry

     total magnetization       =    24.65 Bohr mag/cell
     absolute magnetization    =    30.33 Bohr mag/cell

     iteration # 36     ecut=    40.00 Ry     beta= 0.30
     Davidson diagonalization with overlap
     c_bands:  3 eigenvalues not converged
     ethr =  5.72E-09,  avg # of iterations =  2.7

     negative rho (up, down):  9.276E-03 7.589E-03

     total cpu time spent up to now is      614.5 secs

     total energy              =   -6706.88638498 Ry
     estimated scf accuracy    <       0.00000739 Ry

     total magnetization       =    24.66 Bohr mag/cell
     absolute magnetization    =    30.32 Bohr mag/cell

     iteration # 37     ecut=    40.00 Ry     beta= 0.30
     Davidson diagonalization with overlap
     ethr =  2.01E-09,  avg # of iterations =  3.0

     negative rho (up, down):  9.138E-03 7.474E-03

     total cpu time spent up to now is      631.3 secs

     total energy              =   -6706.88638419 Ry
     estimated scf accuracy    <       0.00001731 Ry

     total magnetization       =    24.65 Bohr mag/cell
     absolute magnetization    =    30.32 Bohr mag/cell

     iteration # 38     ecut=    40.00 Ry     beta= 0.30
     Davidson diagonalization with overlap
     ethr =  2.01E-09,  avg # of iterations =  2.1

     negative rho (up, down):  9.144E-03 7.476E-03

     total cpu time spent up to now is      647.5 secs

     total energy              =   -6706.88638462 Ry
     estimated scf accuracy    <       0.00000365 Ry

     total magnetization       =    24.66 Bohr mag/cell
     absolute magnetization    =    30.32 Bohr mag/cell

     iteration # 39     ecut=    40.00 Ry     beta= 0.30
     Davidson diagonalization with overlap
     ethr =  9.94E-10,  avg # of iterations =  2.3

     negative rho (up, down):  9.180E-03 7.512E-03

     total cpu time spent up to now is      664.0 secs

     total energy              =   -6706.88638445 Ry
     estimated scf accuracy    <       0.00000297 Ry

     total magnetization       =    24.66 Bohr mag/cell
     absolute magnetization    =    30.32 Bohr mag/cell

     iteration # 40     ecut=    40.00 Ry     beta= 0.30
     Davidson diagonalization with overlap
     ethr =  8.09E-10,  avg # of iterations =  1.9

     negative rho (up, down):  9.260E-03 7.585E-03

     total cpu time spent up to now is      680.2 secs

     total energy              =   -6706.88638442 Ry
     estimated scf accuracy    <       0.00000222 Ry

     total magnetization       =    24.66 Bohr mag/cell
     absolute magnetization    =    30.32 Bohr mag/cell

     iteration # 41     ecut=    40.00 Ry     beta= 0.30
     Davidson diagonalization with overlap
     ethr =  6.05E-10,  avg # of iterations =  2.1

     negative rho (up, down):  9.344E-03 7.657E-03

     Magnetic moment per site  (integrated on atomic sphere of radius R)
     atom   1 (R=0.134)  charge=  8.5084  magn=  0.7589
     atom   2 (R=0.134)  charge=  8.5083  magn=  0.7590
     atom   3 (R=0.134)  charge=  8.5078  magn=  0.7617
     atom   4 (R=0.134)  charge=  8.5083  magn=  0.7587
     atom   5 (R=0.134)  charge=  8.5082  magn=  0.7593
     atom   6 (R=0.134)  charge=  8.5082  magn=  0.7589
     atom   7 (R=0.134)  charge=  8.5078  magn=  0.7617
     atom   8 (R=0.134)  charge=  8.5082  magn=  0.7591
     atom   9 (R=0.134)  charge=  8.5078  magn=  0.7612
     atom  10 (R=0.134)  charge=  8.5822  magn=  0.7528
     atom  11 (R=0.134)  charge=  8.5821  magn=  0.7517
     atom  12 (R=0.134)  charge=  8.5820  magn=  0.7524
     atom  13 (R=0.134)  charge=  8.5821  magn=  0.7519
     atom  14 (R=0.134)  charge=  8.5846  magn=  0.7522
     atom  15 (R=0.134)  charge=  8.5821  magn=  0.7521
     atom  16 (R=0.134)  charge=  8.5820  magn=  0.7527
     atom  17 (R=0.134)  charge=  8.5821  magn=  0.7521
     atom  18 (R=0.134)  charge=  8.5754  magn=  0.7532
     atom  19 (R=0.134)  charge=  8.5848  magn=  0.7521
     atom  20 (R=0.134)  charge=  8.5848  magn=  0.7537
     atom  21 (R=0.134)  charge=  8.5968  magn=  0.7509
     atom  22 (R=0.134)  charge=  8.5875  magn=  0.7504
     atom  23 (R=0.134)  charge=  8.5968  magn=  0.7498
     atom  24 (R=0.134)  charge=  8.5969  magn=  0.7494
     atom  25 (R=0.134)  charge=  8.5873  magn=  0.7487
     atom  26 (R=0.134)  charge=  8.5846  magn=  0.7523
     atom  27 (R=0.134)  charge=  8.5874  magn=  0.7515
     atom  28 (R=0.134)  charge=  8.5015  magn=  0.7592
     atom  29 (R=0.134)  charge=  8.4999  magn=  0.7603
     atom  30 (R=0.134)  charge=  8.5225  magn=  0.7562
     atom  31 (R=0.134)  charge=  8.5010  magn=  0.7589
     atom  32 (R=0.134)  charge=  8.5263  magn=  0.7563
     atom  33 (R=0.134)  charge=  8.5274  magn=  0.7555
     atom  34 (R=0.134)  charge=  8.5230  magn=  0.7569
     atom  35 (R=0.134)  charge=  8.5275  magn=  0.7553
     atom  36 (R=0.134)  charge=  8.5230  magn=  0.7558
     atom  37 (R=0.062)  charge=  0.8752  magn= -0.1845
     atom  38 (R=0.062)  charge=  0.5007  magn= -0.0019
     atom  39 (R=0.062)  charge=  0.4989  magn= -0.0018
     atom  40 (R=0.062)  charge=  0.4979  magn= -0.0019

     total cpu time spent up to now is      696.3 secs

     End of self-consistent calculation

 ------ SPIN UP ------------


          k = 0.0000 0.0000 0.0000 ( 34239 PWs)   bands (ev):

    -9.8519  -7.4054  -5.9827  -4.3274  -4.3163  -4.3162  -4.3161  -4.2941
    -4.2940  -4.2765  -3.6373  -3.5519  -3.5338  -3.5338  -3.5219  -3.5218
    -3.5063  -3.0168  -3.0151  -2.8610  -2.8534  -2.8532  -2.8344  -2.8340
    -2.8333  -2.6133  -2.6132  -2.6009  -2.5972  -2.5971  -2.5901  -2.3942
    -2.3937  -2.3737  -2.3565  -2.3224  -2.3224  -2.2957  -2.2912  -2.2911
    -2.2803  -2.2649  -2.2648  -2.1664  -2.1627  -2.0908  -2.0908  -2.0539
    -2.0537  -1.9393  -1.9388  -1.9331  -1.9286  -1.9159  -1.9155  -1.8691
    -1.8690  -1.4911  -1.4909  -1.4906  -1.4764  -1.4762  -1.4724  -1.3794
    -1.3793  -1.3678  -1.3621  -1.2893  -1.2815  -1.2811  -1.2783  -1.2781
    -1.2762  -1.2315  -1.1992  -1.1140  -1.1139  -1.0863  -1.0863  -0.9651
    -0.9627  -0.9625  -0.9584  -0.9577  -0.9504  -0.9309  -0.9277  -0.9198
    -0.9162  -0.9158  -0.8973  -0.8966  -0.8945  -0.8944  -0.8784  -0.8742
    -0.8061  -0.8060  -0.7669  -0.7666  -0.7621  -0.7621  -0.7322  -0.7320
    -0.6989  -0.6983  -0.6958  -0.6717  -0.6613  -0.6610  -0.4119  -0.4073
    -0.4069  -0.3938  -0.3879  -0.3873  -0.3160  -0.3073  -0.3067  -0.2951
    -0.2941  -0.2867  -0.1849  -0.1819  -0.1814  -0.1802  -0.1698  -0.1693
    -0.1332  -0.1331   0.0122   0.0122   0.0580   0.0580   0.0753   0.0770
     0.1062   0.1247   0.1249   0.1289   0.1293   0.1296   0.1738   0.1739
     0.1903   0.1968   0.1976   0.2030   0.2043   0.2098   0.3215   0.3216
     0.3218   0.3332   0.3337   0.3337   0.3584   0.3592   0.4253   0.4300
     0.4305   0.4421   0.4431   0.4437   0.4469   0.4471   0.4532   0.4533
     0.4585   0.4630   0.4845   0.4881   0.4883   0.4986   0.4987   0.5198
     0.5214   0.5220   0.5434   0.5451   0.5454   0.5457   0.5692   0.5693
     0.5810   0.5875   0.5876   0.5889   0.5894   0.5971   0.6390   0.7187
     0.7187   0.7434   0.7460   0.7465   0.7498   0.7502   0.7559   1.5400
     1.8958   1.9129   1.9177   1.9234   1.9278   1.9340   2.6584   4.3760
     4.3936   4.3962   4.3990   4.4014   4.4407   5.2478   5.6280   6.0541
     6.0543   6.3002   6.3091   6.3232   6.3233

          k = 0.0000 0.2309 0.0000 ( 34213 PWs)   bands (ev):

    -9.8518  -7.2538  -5.8386  -5.2113  -4.6523  -4.6475  -4.1899  -4.0699
    -3.8466  -3.8429  -3.6823  -3.6807  -3.6589  -3.5274  -3.3141  -3.3071
    -3.2913  -3.0181  -3.0161  -2.9237  -2.8379  -2.8094  -2.8055  -2.7879
    -2.7871  -2.7424  -2.6388  -2.6332  -2.5867  -2.5821  -2.5466  -2.5406
    -2.5368  -2.4937  -2.4865  -2.4424  -2.3438  -2.3409  -2.2994  -2.2953
    -2.1940  -2.1910  -2.1511  -2.1471  -2.1250  -2.0898  -2.0576  -2.0554
    -2.0037  -1.9977  -1.9702  -1.9686  -1.8424  -1.8352  -1.8252  -1.8167
    -1.7264  -1.6664  -1.6642  -1.6576  -1.4814  -1.4786  -1.4444  -1.4429
    -1.4092  -1.3864  -1.3857  -1.3423  -1.3248  -1.3207  -1.2964  -1.2662
    -1.2622  -1.2307  -1.1416  -1.1217  -1.0722  -1.0366  -1.0308  -1.0276
    -1.0220  -1.0197  -1.0012  -0.9779  -0.9768  -0.9703  -0.9534  -0.9524
    -0.9434  -0.9312  -0.9282  -0.8884  -0.8803  -0.8501  -0.8491  -0.8156
    -0.7869  -0.7851  -0.7712  -0.7704  -0.7459  -0.7432  -0.7271  -0.7239
    -0.7035  -0.6965  -0.6964  -0.6831  -0.6735  -0.6709  -0.6585  -0.6516
    -0.6234  -0.6071  -0.6056  -0.5351  -0.3348  -0.3290  -0.3288  -0.3130
    -0.2874  -0.2869  -0.2652  -0.2597  -0.2165  -0.2160  -0.1947  -0.1495
    -0.1102  -0.1094  -0.0662  -0.0656  -0.0385  -0.0288   0.0296   0.0482
     0.0517   0.0705   0.0808   0.0826   0.1293   0.1485   0.1505   0.1698
     0.1757   0.1892   0.1938   0.1961   0.2337   0.2346   0.2838   0.2853
     0.2884   0.2981   0.3013   0.3101   0.3213   0.3219   0.3232   0.3795
     0.4003   0.4024   0.4071   0.4847   0.4861   0.5116   0.5135   0.5234
     0.5240   0.5325   0.5440   0.5585   0.5599   0.5664   0.5743   0.5761
     0.5879   0.5886   0.6020   0.6027   0.6123   0.6477   0.6490   0.6704
     0.6859   0.6869   0.6944   0.7097   0.7115   0.7215   0.7396   0.7535
     0.7997   0.9149   0.9177   1.1547   1.1695   1.1746   1.3100   1.3563
     1.7027   1.7133   2.0459   2.5035   2.5303   2.6783   2.8074   3.4597
     4.0156   4.0463   4.4425   4.4446   5.0015   5.0138   5.1647   5.2712
     5.2725   5.4005   5.4630   5.7711   6.2472

          k = 0.0000 0.4619 0.0000 ( 34234 PWs)   bands (ev):

    -9.8517  -6.8085  -6.1022  -5.4208  -4.8375  -4.8354  -4.7812  -3.8163
    -3.7574  -3.7571  -3.4167  -3.3534  -3.3503  -3.3033  -3.2540  -3.2239
    -3.0516  -3.0514  -3.0184  -3.0168  -2.9130  -2.9105  -2.8487  -2.8243
    -2.8007  -2.7991  -2.7233  -2.7179  -2.7146  -2.6414  -2.6410  -2.5881
    -2.5875  -2.5810  -2.4714  -2.4669  -2.4037  -2.4035  -2.3376  -2.3291
    -2.2094  -2.2087  -2.1770  -2.0989  -2.0956  -2.0207  -2.0088  -2.0061
    -1.9943  -1.9172  -1.9059  -1.8782  -1.8779  -1.8688  -1.7531  -1.7526
    -1.6928  -1.6885  -1.6351  -1.5878  -1.5856  -1.5741  -1.5061  -1.4771
    -1.4268  -1.4263  -1.4064  -1.3722  -1.3656  -1.3338  -1.3297  -1.3090
    -1.3087  -1.2976  -1.2377  -1.2270  -1.1651  -1.1601  -1.1532  -1.1413
    -1.1387  -1.1114  -1.0772  -1.0511  -1.0481  -1.0275  -1.0138  -0.9907
    -0.9723  -0.9603  -0.9425  -0.9107  -0.9105  -0.8628  -0.8559  -0.8536
    -0.8447  -0.8367  -0.7594  -0.7581  -0.7568  -0.7246  -0.7236  -0.7077
    -0.6997  -0.6947  -0.6100  -0.6077  -0.5934  -0.5580  -0.5392  -0.5294
    -0.5288  -0.5161  -0.5112  -0.4573  -0.4393  -0.4391  -0.4067  -0.4033
    -0.3454  -0.3445  -0.3369  -0.3363  -0.3265  -0.2912  -0.2808  -0.2710
    -0.2699  -0.2410  -0.2393  -0.1848  -0.1679  -0.1563  -0.1541  -0.0880
    -0.0458  -0.0038   0.0003   0.0288   0.0460   0.1334   0.1365   0.1646
     0.1649   0.2037   0.2246   0.2286   0.2310   0.2521   0.2539   0.2640
     0.2644   0.2978   0.2987   0.3038   0.3187   0.3217   0.3546   0.3793
     0.3802   0.4615   0.4642   0.5331   0.5360   0.5374   0.5433   0.5464
     0.5514   0.5526   0.5607   0.5759   0.5762   0.5947   0.5974   0.6165
     0.6176   0.6672   0.6677   0.6730   0.6842   0.6856   0.7038   0.7260
     0.7328   0.7422   0.7535   0.7552   0.7612   0.7613   0.8822   0.8975
     0.9075   1.6449   1.6607   1.6728   1.7659   1.7679   1.8061   2.2565
     2.2573   2.4213   2.6890   2.7167   2.9436   2.9458   3.1470   3.5191
     3.6090   3.6161   3.6547   3.6606   3.8431   3.8777   4.2207   4.4443
     4.9998   5.0055   5.8177   5.8201   5.8526

          k = 0.2000-0.1155 0.0000 ( 34213 PWs)   bands (ev):

    -9.8518  -7.2538  -5.8386  -5.2113  -4.6523  -4.6475  -4.1899  -4.0698
    -3.8466  -3.8429  -3.6823  -3.6807  -3.6589  -3.5274  -3.3141  -3.3071
    -3.2913  -3.0179  -3.0164  -2.9238  -2.8380  -2.8094  -2.8056  -2.7880
    -2.7869  -2.7424  -2.6388  -2.6332  -2.5867  -2.5821  -2.5465  -2.5406
    -2.5368  -2.4936  -2.4866  -2.4424  -2.3439  -2.3409  -2.2994  -2.2953
    -2.1940  -2.1910  -2.1511  -2.1470  -2.1250  -2.0898  -2.0576  -2.0555
    -2.0037  -1.9977  -1.9702  -1.9686  -1.8425  -1.8353  -1.8251  -1.8166
    -1.7265  -1.6665  -1.6641  -1.6576  -1.4814  -1.4786  -1.4444  -1.4429
    -1.4091  -1.3864  -1.3857  -1.3421  -1.3248  -1.3208  -1.2963  -1.2660
    -1.2624  -1.2306  -1.1416  -1.1216  -1.0723  -1.0365  -1.0308  -1.0277
    -1.0220  -1.0196  -1.0012  -0.9778  -0.9769  -0.9701  -0.9533  -0.9525
    -0.9433  -0.9316  -0.9282  -0.8884  -0.8802  -0.8500  -0.8490  -0.8156
    -0.7869  -0.7851  -0.7709  -0.7707  -0.7460  -0.7432  -0.7271  -0.7238
    -0.7035  -0.6965  -0.6964  -0.6830  -0.6733  -0.6709  -0.6588  -0.6517
    -0.6234  -0.6073  -0.6057  -0.5349  -0.3348  -0.3292  -0.3288  -0.3130
    -0.2873  -0.2870  -0.2653  -0.2594  -0.2166  -0.2159  -0.1947  -0.1496
    -0.1105  -0.1092  -0.0663  -0.0654  -0.0384  -0.0288   0.0296   0.0482
     0.0517   0.0706   0.0808   0.0825   0.1291   0.1485   0.1504   0.1700
     0.1757   0.1892   0.1940   0.1960   0.2336   0.2344   0.2835   0.2860
     0.2882   0.2981   0.3011   0.3102   0.3216   0.3221   0.3228   0.3791
     0.4005   0.4024   0.4073   0.4844   0.4863   0.5121   0.5131   0.5236
     0.5238   0.5325   0.5439   0.5585   0.5599   0.5663   0.5742   0.5763
     0.5877   0.5888   0.6019   0.6028   0.6123   0.6476   0.6491   0.6705
     0.6861   0.6866   0.6944   0.7097   0.7114   0.7215   0.7397   0.7534
     0.7997   0.9149   0.9178   1.1534   1.1697   1.1754   1.3106   1.3560
     1.7029   1.7131   2.0463   2.5037   2.5311   2.6791   2.8067   3.4578
     4.0184   4.0452   4.4426   4.4446   5.0029   5.0128   5.1639   5.2715
     5.2724   5.4017   5.4593   5.7711   6.2569

          k = 0.2000 0.1155 0.0000 ( 34213 PWs)   bands (ev):

    -9.8518  -7.2538  -5.8386  -5.2113  -4.6523  -4.6475  -4.1899  -4.0699
    -3.8467  -3.8429  -3.6823  -3.6807  -3.6589  -3.5274  -3.3141  -3.3071
    -3.2914  -3.0188  -3.0155  -2.9237  -2.8379  -2.8098  -2.8053  -2.7878
    -2.7872  -2.7424  -2.6388  -2.6332  -2.5867  -2.5820  -2.5465  -2.5406
    -2.5368  -2.4937  -2.4865  -2.4424  -2.3440  -2.3407  -2.2994  -2.2953
    -2.1940  -2.1911  -2.1511  -2.1469  -2.1251  -2.0898  -2.0576  -2.0555
    -2.0037  -1.9977  -1.9702  -1.9686  -1.8424  -1.8350  -1.8255  -1.8167
    -1.7264  -1.6665  -1.6641  -1.6577  -1.4814  -1.4786  -1.4444  -1.4428
    -1.4092  -1.3863  -1.3857  -1.3422  -1.3249  -1.3208  -1.2963  -1.2662
    -1.2620  -1.2306  -1.1416  -1.1217  -1.0723  -1.0366  -1.0308  -1.0277
    -1.0220  -1.0195  -1.0012  -0.9777  -0.9769  -0.9703  -0.9532  -0.9525
    -0.9432  -0.9313  -0.9285  -0.8883  -0.8803  -0.8500  -0.8490  -0.8155
    -0.7869  -0.7851  -0.7711  -0.7703  -0.7460  -0.7432  -0.7271  -0.7239
    -0.7035  -0.6965  -0.6964  -0.6830  -0.6733  -0.6708  -0.6584  -0.6520
    -0.6234  -0.6077  -0.6053  -0.5348  -0.3350  -0.3291  -0.3288  -0.3128
    -0.2873  -0.2868  -0.2652  -0.2598  -0.2164  -0.2160  -0.1947  -0.1497
    -0.1103  -0.1092  -0.0665  -0.0654  -0.0385  -0.0288   0.0296   0.0481
     0.0519   0.0703   0.0808   0.0827   0.1289   0.1484   0.1506   0.1700
     0.1756   0.1892   0.1938   0.1962   0.2338   0.2347   0.2841   0.2856
     0.2882   0.2981   0.3011   0.3103   0.3213   0.3218   0.3231   0.3794
     0.4005   0.4022   0.4075   0.4843   0.4865   0.5117   0.5132   0.5234
     0.5241   0.5325   0.5440   0.5585   0.5597   0.5664   0.5744   0.5759
     0.5880   0.5886   0.6020   0.6027   0.6123   0.6479   0.6488   0.6703
     0.6857   0.6871   0.6944   0.7098   0.7115   0.7215   0.7396   0.7535
     0.7997   0.9148   0.9178   1.1540   1.1700   1.1748   1.3104   1.3560
     1.7035   1.7123   2.0459   2.5017   2.5322   2.6803   2.8049   3.4598
     4.0211   4.0411   4.4425   4.4447   5.0039   5.0115   5.1641   5.2717
     5.2722   5.3993   5.4646   5.7713   6.2592

          k = 0.2000 0.3464 0.0000 ( 34230 PWs)   bands (ev):

    -9.8517  -6.9552  -5.5830  -5.5693  -5.5473  -4.3474  -4.3224  -3.9690
    -3.9545  -3.9303  -3.4218  -3.4169  -3.3209  -3.2581  -3.2489  -3.2055
    -3.1951  -3.0288  -3.0199  -3.0026  -2.9897  -2.8332  -2.8043  -2.7875
    -2.7774  -2.7705  -2.7174  -2.7125  -2.6839  -2.6671  -2.6268  -2.5912
    -2.5781  -2.5002  -2.4856  -2.4588  -2.4492  -2.4378  -2.4273  -2.2773
    -2.1872  -2.1698  -2.1522  -2.1228  -2.1189  -2.0510  -2.0313  -2.0008
    -1.9900  -1.9411  -1.9173  -1.9018  -1.8165  -1.8015  -1.7926  -1.7414
    -1.7332  -1.6929  -1.6811  -1.6288  -1.6214  -1.4826  -1.4747  -1.4583
    -1.4547  -1.4470  -1.4308  -1.4229  -1.3942  -1.3403  -1.3096  -1.2504
    -1.2173  -1.2037  -1.1632  -1.1541  -1.1444  -1.1404  -1.1217  -1.1139
    -1.0836  -1.0769  -1.0389  -1.0350  -1.0064  -0.9954  -0.9760  -0.9459
    -0.9425  -0.9269  -0.9057  -0.8987  -0.8940  -0.8890  -0.8827  -0.8791
    -0.8603  -0.8279  -0.8262  -0.8162  -0.7999  -0.7697  -0.7619  -0.7475
    -0.7336  -0.7165  -0.7143  -0.6937  -0.6283  -0.6196  -0.6067  -0.6036
    -0.5910  -0.5823  -0.5292  -0.5147  -0.4655  -0.4008  -0.3811  -0.3687
    -0.3073  -0.3046  -0.2648  -0.2580  -0.2572  -0.2557  -0.2477  -0.2430
    -0.2385  -0.2313  -0.1629  -0.0935  -0.0920  -0.0740  -0.0679  -0.0393
    -0.0242   0.0632   0.0790   0.0849   0.0927   0.0931   0.0989   0.1330
     0.1495   0.1636   0.1648   0.1659   0.1693   0.1872   0.2506   0.2555
     0.2606   0.2841   0.2899   0.3119   0.3194   0.3451   0.3502   0.3543
     0.3655   0.4167   0.5027   0.5080   0.5145   0.5179   0.5315   0.5370
     0.5409   0.5422   0.5805   0.5860   0.5868   0.6035   0.6075   0.6438
     0.6523   0.6542   0.6568   0.6601   0.6633   0.6702   0.6796   0.6897
     0.6931   0.7206   0.7286   0.7513   0.7967   0.7996   1.0482   1.0536
     1.1712   1.1820   1.2445   1.2489   1.6137   1.6192   1.6319   2.2760
     2.2798   2.4065   2.4938   2.5416   2.8844   2.9728   3.1015   3.1935
     3.4922   3.4990   3.7118   4.0386   4.6223   4.8722   4.8868   4.9326
     4.9909   5.1689   5.2046   5.2157   5.2221

          k = 0.2000-0.5774 0.0000 ( 34250 PWs)   bands (ev):

    -9.8517  -6.3872  -6.3680  -5.6947  -5.0391  -5.0129  -4.4275  -3.9999
    -3.4910  -3.4677  -3.3219  -3.2807  -3.2688  -3.2154  -3.1928  -3.1397
    -3.1347  -3.0379  -3.0313  -3.0257  -3.0183  -3.0113  -2.9645  -2.9493
    -2.8866  -2.8803  -2.8099  -2.6766  -2.6732  -2.6239  -2.6097  -2.5931
    -2.5823  -2.5716  -2.5665  -2.5074  -2.4939  -2.3545  -2.3481  -2.3320
    -2.3266  -2.1797  -2.1619  -2.1428  -2.0729  -2.0706  -2.0693  -2.0569
    -1.9012  -1.8659  -1.8542  -1.8214  -1.7831  -1.7363  -1.7252  -1.7150
    -1.7005  -1.6616  -1.6259  -1.6213  -1.6047  -1.5874  -1.5860  -1.4629
    -1.4589  -1.4547  -1.4437  -1.4359  -1.4275  -1.3546  -1.3423  -1.2554
    -1.2458  -1.2109  -1.1966  -1.1864  -1.1723  -1.1694  -1.1629  -1.1547
    -1.1347  -1.1252  -1.1070  -1.0973  -1.0490  -1.0464  -1.0407  -1.0324
    -1.0204  -0.9412  -0.9329  -0.9247  -0.9080  -0.8950  -0.8902  -0.8752
    -0.8718  -0.8650  -0.8473  -0.7772  -0.7751  -0.7595  -0.7556  -0.7448
    -0.7326  -0.7050  -0.6632  -0.6616  -0.6573  -0.6499  -0.6413  -0.6185
    -0.5806  -0.4743  -0.4504  -0.4246  -0.4078  -0.3991  -0.3838  -0.3525
    -0.3377  -0.3023  -0.2940  -0.2842  -0.2785  -0.2705  -0.2611  -0.2566
    -0.2492  -0.2376  -0.2289  -0.1577  -0.1508  -0.1406  -0.1325  -0.1247
    -0.0305  -0.0187  -0.0050   0.0078   0.0112   0.0732   0.0776   0.0894
     0.1362   0.1397   0.1584   0.2214   0.2233   0.2289   0.2344   0.2411
     0.2457   0.2580   0.2628   0.2668   0.2669   0.3679   0.4011   0.4203
     0.4646   0.4669   0.4863   0.4892   0.4952   0.4982   0.5023   0.5348
     0.5367   0.5690   0.5705   0.5947   0.6133   0.6214   0.6516   0.6569
     0.6614   0.6655   0.6797   0.6833   0.6849   0.6997   0.7045   0.7541
     0.7546   0.7593   0.7625   0.8111   0.8199   0.8338   0.8393   1.0964
     1.1608   1.2832   1.8449   1.8451   2.1758   2.2869   2.3096   2.3191
     2.3234   2.4909   2.6481   2.7929   2.8006   3.0373   3.3489   3.5173
     3.5285   3.6852   3.6975   3.7755   3.8561   3.9612   4.1259   4.4542
     4.4684   4.7840   4.8442   5.1862   5.1974

          k = 0.2000-0.3464 0.0000 ( 34230 PWs)   bands (ev):

    -9.8517  -6.9552  -5.5830  -5.5693  -5.5473  -4.3474  -4.3225  -3.9690
    -3.9546  -3.9303  -3.4218  -3.4169  -3.3209  -3.2581  -3.2490  -3.2057
    -3.1950  -3.0251  -3.0210  -3.0081  -2.9868  -2.8332  -2.8042  -2.7875
    -2.7774  -2.7706  -2.7173  -2.7126  -2.6838  -2.6672  -2.6269  -2.5912
    -2.5781  -2.5002  -2.4856  -2.4589  -2.4491  -2.4375  -2.4276  -2.2773
    -2.1872  -2.1698  -2.1522  -2.1224  -2.1193  -2.0509  -2.0315  -2.0007
    -1.9902  -1.9411  -1.9174  -1.9014  -1.8166  -1.8015  -1.7926  -1.7412
    -1.7334  -1.6928  -1.6812  -1.6287  -1.6215  -1.4827  -1.4747  -1.4582
    -1.4545  -1.4469  -1.4304  -1.4234  -1.3943  -1.3402  -1.3096  -1.2504
    -1.2175  -1.2035  -1.1632  -1.1538  -1.1446  -1.1405  -1.1216  -1.1140
    -1.0834  -1.0771  -1.0388  -1.0351  -1.0065  -0.9954  -0.9759  -0.9457
    -0.9427  -0.9271  -0.9057  -0.8984  -0.8940  -0.8888  -0.8827  -0.8795
    -0.8602  -0.8278  -0.8264  -0.8161  -0.7997  -0.7698  -0.7619  -0.7475
    -0.7336  -0.7165  -0.7142  -0.6936  -0.6284  -0.6199  -0.6067  -0.6035
    -0.5909  -0.5825  -0.5294  -0.5145  -0.4655  -0.4008  -0.3806  -0.3691
    -0.3074  -0.3046  -0.2646  -0.2579  -0.2577  -0.2562  -0.2474  -0.2426
    -0.2388  -0.2310  -0.1628  -0.0939  -0.0913  -0.0744  -0.0679  -0.0394
    -0.0242   0.0632   0.0794   0.0845   0.0925   0.0934   0.0991   0.1330
     0.1496   0.1635   0.1648   0.1666   0.1686   0.1871   0.2512   0.2554
     0.2603   0.2839   0.2898   0.3117   0.3194   0.3455   0.3502   0.3539
     0.3655   0.4167   0.5035   0.5073   0.5142   0.5182   0.5314   0.5372
     0.5405   0.5427   0.5805   0.5861   0.5869   0.6031   0.6077   0.6439
     0.6525   0.6542   0.6567   0.6599   0.6629   0.6703   0.6796   0.6897
     0.6932   0.7204   0.7288   0.7513   0.7969   0.7994   1.0481   1.0537
     1.1746   1.1784   1.2445   1.2487   1.6136   1.6190   1.6328   2.2752
     2.2820   2.4068   2.4952   2.5406   2.8871   2.9728   3.0976   3.1934
     3.4914   3.4995   3.7117   4.0387   4.6224   4.8736   4.8866   4.9327
     4.9908   5.1691   5.2048   5.2138   5.2235

          k = 0.4000-0.2309 0.0000 ( 34234 PWs)   bands (ev):

    -9.8517  -6.8085  -6.1022  -5.4208  -4.8375  -4.8355  -4.7812  -3.8163
    -3.7573  -3.7573  -3.4167  -3.3534  -3.3503  -3.3034  -3.2540  -3.2238
    -3.0516  -3.0514  -3.0192  -3.0164  -2.9130  -2.9105  -2.8488  -2.8242
    -2.8006  -2.7990  -2.7233  -2.7178  -2.7146  -2.6414  -2.6409  -2.5881
    -2.5875  -2.5810  -2.4714  -2.4669  -2.4037  -2.4035  -2.3376  -2.3292
    -2.2094  -2.2087  -2.1770  -2.0988  -2.0956  -2.0208  -2.0091  -2.0060
    -1.9941  -1.9172  -1.9059  -1.8781  -1.8779  -1.8689  -1.7531  -1.7526
    -1.6929  -1.6885  -1.6351  -1.5878  -1.5856  -1.5741  -1.5061  -1.4770
    -1.4268  -1.4261  -1.4063  -1.3720  -1.3657  -1.3337  -1.3299  -1.3089
    -1.3087  -1.2975  -1.2376  -1.2270  -1.1651  -1.1601  -1.1534  -1.1412
    -1.1386  -1.1114  -1.0771  -1.0510  -1.0482  -1.0275  -1.0138  -0.9907
    -0.9724  -0.9603  -0.9425  -0.9109  -0.9105  -0.8628  -0.8559  -0.8535
    -0.8447  -0.8367  -0.7595  -0.7580  -0.7568  -0.7246  -0.7236  -0.7076
    -0.6997  -0.6947  -0.6099  -0.6079  -0.5934  -0.5580  -0.5392  -0.5294
    -0.5288  -0.5162  -0.5112  -0.4574  -0.4394  -0.4391  -0.4065  -0.4033
    -0.3452  -0.3447  -0.3372  -0.3362  -0.3264  -0.2911  -0.2807  -0.2714
    -0.2696  -0.2410  -0.2392  -0.1845  -0.1679  -0.1563  -0.1540  -0.0881
    -0.0457  -0.0038   0.0002   0.0284   0.0465   0.1332   0.1367   0.1644
     0.1650   0.2037   0.2246   0.2289   0.2307   0.2522   0.2536   0.2636
     0.2648   0.2981   0.2985   0.3037   0.3186   0.3218   0.3546   0.3796
     0.3799   0.4618   0.4639   0.5332   0.5363   0.5373   0.5433   0.5458
     0.5516   0.5526   0.5608   0.5757   0.5765   0.5944   0.5976   0.6167
     0.6174   0.6672   0.6676   0.6730   0.6841   0.6856   0.7038   0.7260
     0.7328   0.7422   0.7533   0.7553   0.7613   0.7614   0.8822   0.8975
     0.9075   1.6448   1.6612   1.6726   1.7660   1.7676   1.8064   2.2550
     2.2587   2.4270   2.6965   2.7089   2.9436   2.9458   3.1430   3.5188
     3.6095   3.6150   3.6550   3.6600   3.8463   3.8776   4.2188   4.4444
     5.0001   5.0054   5.8178   5.8207   5.8619

          k = 0.4000 0.0000 0.0000 ( 34230 PWs)   bands (ev):

    -9.8517  -6.9552  -5.5831  -5.5692  -5.5473  -4.3474  -4.3225  -3.9689
    -3.9546  -3.9303  -3.4218  -3.4168  -3.3209  -3.2582  -3.2489  -3.2055
    -3.1951  -3.0252  -3.0218  -3.0070  -2.9871  -2.8332  -2.8043  -2.7875
    -2.7773  -2.7706  -2.7173  -2.7126  -2.6839  -2.6671  -2.6269  -2.5912
    -2.5781  -2.5002  -2.4856  -2.4588  -2.4492  -2.4377  -2.4274  -2.2773
    -2.1872  -2.1698  -2.1522  -2.1227  -2.1190  -2.0510  -2.0314  -2.0006
    -1.9902  -1.9411  -1.9174  -1.9015  -1.8165  -1.8015  -1.7926  -1.7414
    -1.7332  -1.6928  -1.6812  -1.6287  -1.6215  -1.4825  -1.4747  -1.4583
    -1.4546  -1.4469  -1.4307  -1.4231  -1.3943  -1.3403  -1.3096  -1.2504
    -1.2173  -1.2036  -1.1629  -1.1541  -1.1445  -1.1407  -1.1217  -1.1138
    -1.0835  -1.0770  -1.0390  -1.0349  -1.0064  -0.9954  -0.9758  -0.9458
    -0.9430  -0.9270  -0.9057  -0.8985  -0.8940  -0.8890  -0.8826  -0.8793
    -0.8602  -0.8279  -0.8263  -0.8161  -0.7999  -0.7697  -0.7618  -0.7474
    -0.7337  -0.7164  -0.7143  -0.6937  -0.6284  -0.6197  -0.6068  -0.6034
    -0.5910  -0.5827  -0.5290  -0.5147  -0.4655  -0.4008  -0.3808  -0.3689
    -0.3073  -0.3048  -0.2647  -0.2578  -0.2575  -0.2558  -0.2476  -0.2429
    -0.2385  -0.2312  -0.1627  -0.0938  -0.0914  -0.0744  -0.0679  -0.0394
    -0.0241   0.0633   0.0785   0.0849   0.0926   0.0935   0.0994   0.1330
     0.1495   0.1636   0.1645   0.1664   0.1690   0.1872   0.2511   0.2555
     0.2603   0.2840   0.2899   0.3117   0.3194   0.3453   0.3502   0.3540
     0.3655   0.4167   0.5032   0.5075   0.5142   0.5182   0.5315   0.5373
     0.5406   0.5424   0.5805   0.5861   0.5869   0.6033   0.6076   0.6436
     0.6522   0.6544   0.6568   0.6599   0.6630   0.6705   0.6797   0.6898
     0.6931   0.7205   0.7286   0.7513   0.7967   0.7996   1.0482   1.0536
     1.1711   1.1821   1.2439   1.2492   1.6146   1.6191   1.6319   2.2778
     2.2798   2.4052   2.4951   2.5427   2.8850   2.9726   3.1005   3.1918
     3.4940   3.4970   3.7117   4.0387   4.6226   4.8757   4.8844   4.9374
     4.9855   5.1697   5.2044   5.2155   5.2226

          k = 0.4000 0.2309 0.0000 ( 34234 PWs)   bands (ev):

    -9.8517  -6.8085  -6.1022  -5.4208  -4.8375  -4.8354  -4.7812  -3.8163
    -3.7574  -3.7571  -3.4167  -3.3534  -3.3503  -3.3033  -3.2540  -3.2239
    -3.0516  -3.0514  -3.0195  -3.0158  -2.9131  -2.9105  -2.8487  -2.8243
    -2.8006  -2.7992  -2.7233  -2.7183  -2.7142  -2.6414  -2.6409  -2.5881
    -2.5875  -2.5810  -2.4715  -2.4668  -2.4037  -2.4035  -2.3378  -2.3290
    -2.2093  -2.2087  -2.1771  -2.0988  -2.0957  -2.0206  -2.0089  -2.0062
    -1.9943  -1.9172  -1.9059  -1.8782  -1.8780  -1.8687  -1.7531  -1.7526
    -1.6926  -1.6887  -1.6352  -1.5878  -1.5856  -1.5741  -1.5061  -1.4770
    -1.4268  -1.4262  -1.4064  -1.3721  -1.3656  -1.3338  -1.3296  -1.3091
    -1.3086  -1.2976  -1.2377  -1.2269  -1.1651  -1.1602  -1.1531  -1.1414
    -1.1386  -1.1114  -1.0771  -1.0510  -1.0483  -1.0274  -1.0139  -0.9907
    -0.9723  -0.9602  -0.9425  -0.9108  -0.9106  -0.8628  -0.8557  -0.8537
    -0.8448  -0.8367  -0.7593  -0.7582  -0.7567  -0.7247  -0.7237  -0.7077
    -0.6997  -0.6947  -0.6099  -0.6078  -0.5933  -0.5581  -0.5391  -0.5292
    -0.5290  -0.5162  -0.5112  -0.4574  -0.4395  -0.4391  -0.4064  -0.4033
    -0.3452  -0.3444  -0.3373  -0.3361  -0.3264  -0.2913  -0.2807  -0.2715
    -0.2695  -0.2408  -0.2394  -0.1848  -0.1679  -0.1562  -0.1542  -0.0880
    -0.0457  -0.0039   0.0004   0.0267   0.0481   0.1333   0.1366   0.1645
     0.1649   0.2036   0.2245   0.2285   0.2312   0.2520   0.2539   0.2636
     0.2648   0.2980   0.2985   0.3039   0.3187   0.3217   0.3546   0.3794
     0.3800   0.4621   0.4636   0.5332   0.5359   0.5378   0.5436   0.5457
     0.5519   0.5526   0.5605   0.5758   0.5762   0.5947   0.5975   0.6165
     0.6177   0.6671   0.6678   0.6730   0.6842   0.6856   0.7037   0.7259
     0.7329   0.7422   0.7535   0.7551   0.7612   0.7614   0.8824   0.8975
     0.9075   1.6459   1.6604   1.6713   1.7663   1.7673   1.8068   2.2538
     2.2603   2.4229   2.6890   2.7143   2.9434   2.9459   3.1477   3.5189
     3.6107   3.6141   3.6554   3.6590   3.8497   3.8731   4.2195   4.4447
     5.0007   5.0046   5.8190   5.8219   5.9698

          k = 0.4000-0.6928 0.0000 ( 34250 PWs)   bands (ev):

    -9.8517  -6.3871  -6.3681  -5.6947  -5.0391  -5.0129  -4.4275  -3.9999
    -3.4909  -3.4678  -3.3219  -3.2807  -3.2688  -3.2154  -3.1928  -3.1397
    -3.1348  -3.0379  -3.0313  -3.0249  -3.0204  -3.0100  -2.9644  -2.9495
    -2.8867  -2.8802  -2.8099  -2.6765  -2.6733  -2.6239  -2.6097  -2.5931
    -2.5823  -2.5716  -2.5665  -2.5076  -2.4938  -2.3545  -2.3481  -2.3321
    -2.3266  -2.1797  -2.1619  -2.1428  -2.0727  -2.0707  -2.0692  -2.0572
    -1.9012  -1.8659  -1.8541  -1.8215  -1.7831  -1.7361  -1.7253  -1.7150
    -1.7004  -1.6616  -1.6258  -1.6214  -1.6047  -1.5874  -1.5860  -1.4630
    -1.4589  -1.4549  -1.4437  -1.4358  -1.4274  -1.3546  -1.3423  -1.2554
    -1.2458  -1.2113  -1.1967  -1.1860  -1.1722  -1.1693  -1.1628  -1.1547
    -1.1347  -1.1252  -1.1069  -1.0973  -1.0489  -1.0464  -1.0407  -1.0324
    -1.0204  -0.9415  -0.9327  -0.9248  -0.9080  -0.8950  -0.8901  -0.8753
    -0.8717  -0.8650  -0.8473  -0.7771  -0.7752  -0.7595  -0.7556  -0.7448
    -0.7326  -0.7051  -0.6631  -0.6616  -0.6573  -0.6499  -0.6413  -0.6185
    -0.5806  -0.4742  -0.4504  -0.4248  -0.4077  -0.3994  -0.3839  -0.3524
    -0.3377  -0.3008  -0.2946  -0.2841  -0.2787  -0.2705  -0.2622  -0.2556
    -0.2498  -0.2376  -0.2287  -0.1574  -0.1510  -0.1409  -0.1326  -0.1245
    -0.0304  -0.0188  -0.0048   0.0079   0.0110   0.0722   0.0777   0.0902
     0.1362   0.1397   0.1584   0.2214   0.2234   0.2291   0.2343   0.2410
     0.2455   0.2582   0.2629   0.2660   0.2675   0.3679   0.4012   0.4203
     0.4639   0.4675   0.4865   0.4896   0.4951   0.4981   0.5018   0.5349
     0.5367   0.5689   0.5706   0.5947   0.6133   0.6214   0.6516   0.6568
     0.6612   0.6658   0.6795   0.6834   0.6851   0.6995   0.7047   0.7541
     0.7546   0.7592   0.7626   0.8111   0.8199   0.8345   0.8387   1.0964
     1.1608   1.2831   1.8449   1.8451   2.1771   2.2864   2.3090   2.3173
     2.3246   2.4911   2.6485   2.7935   2.7999   3.0377   3.3486   3.5180
     3.5282   3.6857   3.6967   3.7724   3.8583   3.9618   4.1259   4.4541
     4.4685   4.7870   4.8419   5.1859   5.1976

          k = 0.4000-0.4619 0.0000 ( 34250 PWs)   bands (ev):

    -9.8516  -6.3872  -6.3680  -5.6947  -5.0392  -5.0129  -4.4275  -3.9999
    -3.4915  -3.4671  -3.3219  -3.2808  -3.2687  -3.2155  -3.1928  -3.1399
    -3.1346  -3.0377  -3.0310  -3.0258  -3.0196  -3.0109  -2.9635  -2.9500
    -2.8866  -2.8803  -2.8098  -2.6767  -2.6730  -2.6239  -2.6097  -2.5930
    -2.5824  -2.5715  -2.5666  -2.5075  -2.4939  -2.3545  -2.3481  -2.3321
    -2.3265  -2.1797  -2.1619  -2.1428  -2.0729  -2.0707  -2.0693  -2.0569
    -1.9013  -1.8660  -1.8540  -1.8213  -1.7831  -1.7362  -1.7252  -1.7150
    -1.7004  -1.6616  -1.6259  -1.6213  -1.6047  -1.5874  -1.5860  -1.4629
    -1.4589  -1.4546  -1.4438  -1.4360  -1.4274  -1.3547  -1.3423  -1.2553
    -1.2458  -1.2112  -1.1964  -1.1864  -1.1723  -1.1693  -1.1628  -1.1546
    -1.1348  -1.1252  -1.1069  -1.0973  -1.0489  -1.0467  -1.0407  -1.0320
    -1.0207  -0.9413  -0.9331  -0.9245  -0.9081  -0.8949  -0.8903  -0.8751
    -0.8719  -0.8647  -0.8473  -0.7770  -0.7754  -0.7595  -0.7556  -0.7449
    -0.7325  -0.7051  -0.6631  -0.6616  -0.6575  -0.6498  -0.6413  -0.6185
    -0.5807  -0.4742  -0.4504  -0.4247  -0.4076  -0.3995  -0.3838  -0.3525
    -0.3377  -0.3021  -0.2939  -0.2842  -0.2784  -0.2705  -0.2608  -0.2567
    -0.2496  -0.2374  -0.2287  -0.1577  -0.1508  -0.1406  -0.1326  -0.1250
    -0.0304  -0.0187  -0.0050   0.0075   0.0114   0.0731   0.0780   0.0891
     0.1364   0.1394   0.1584   0.2214   0.2231   0.2291   0.2342   0.2413
     0.2459   0.2583   0.2625   0.2666   0.2668   0.3679   0.4011   0.4203
     0.4647   0.4669   0.4860   0.4891   0.4949   0.4990   0.5020   0.5349
     0.5368   0.5688   0.5708   0.5947   0.6133   0.6213   0.6515   0.6569
     0.6614   0.6655   0.6798   0.6833   0.6849   0.6996   0.7046   0.7540
     0.7547   0.7593   0.7627   0.8111   0.8199   0.8340   0.8389   1.0964
     1.1608   1.2831   1.8449   1.8451   2.1753   2.2872   2.3117   2.3201
     2.3251   2.4906   2.6446   2.7937   2.8003   3.0399   3.3481   3.5175
     3.5287   3.6844   3.6984   3.7730   3.8537   3.9618   4.1260   4.4541
     4.4689   4.7872   4.8440   5.1859   5.1978

 ------ SPIN DOWN ----------


          k = 0.0000 0.0000 0.0000 ( 34239 PWs)   bands (ev):

   -10.6005  -7.4476  -6.0087  -4.2459  -4.2436  -4.2417  -4.2414  -4.2207
    -4.2206  -4.1996  -3.3554  -3.3364  -3.3354  -3.3266  -3.3213  -3.3171
    -3.3074  -3.3013  -3.2514  -2.4899  -2.4818  -2.4817  -2.4657  -2.4654
    -2.4649  -1.9516  -1.9514  -1.9344  -1.9306  -1.9305  -1.9258  -1.8857
    -1.8857  -1.7951  -1.7947  -1.7682  -1.7582  -1.7484  -1.7361  -1.6714
    -1.6700  -1.6700  -1.6655  -1.6654  -1.6545  -1.6434  -1.6431  -1.3966
    -1.3965  -1.3236  -1.3233  -1.3188  -1.3155  -1.2974  -1.2970  -1.1960
    -1.1960  -0.9542  -0.9540  -0.9523  -0.9379  -0.9369  -0.9347  -0.7112
    -0.7111  -0.6979  -0.6901  -0.6181  -0.6081  -0.6067  -0.6020  -0.6006
    -0.5911  -0.5266  -0.4325  -0.3988  -0.3988  -0.2902  -0.2677  -0.2669
    -0.2658  -0.2646  -0.2586  -0.2541  -0.2533  -0.2510  -0.2326  -0.2055
    -0.2054  -0.2034  -0.1820  -0.1819  -0.1643  -0.1587  -0.1561  -0.1471
    -0.1470  -0.1381  -0.1354  -0.1326  -0.1184  -0.1161  -0.1108  -0.0965
    -0.0833  -0.0796  -0.0583  -0.0224  -0.0217   0.0726   0.0726   0.1424
     0.1502   0.1506   0.1534   0.1598   0.1749   0.3218   0.3244   0.3272
     0.3302   0.3373   0.3458   0.4039   0.4078   0.4080   0.4260   0.4264
     0.4292   0.5107   0.5107   0.7077   0.7077   0.7088   0.7088   0.7269
     0.7304   0.8394   0.8577   0.8580   0.8640   0.8644   0.8649   0.9092
     0.9092   0.9313   1.0723   1.0780   1.0790   1.0814   1.0823   1.0914
     1.1170   1.1225   1.1226   1.1349   1.1369   1.1371   1.1825   1.1928
     1.1940   1.1956   1.1994   1.2139   1.2370   1.2391   1.2395   1.2453
     1.2471   1.2475   1.2984   1.2985   1.3272   1.3275   1.3303   1.3420
     1.3424   1.3463   1.3466   1.3623   1.3859   1.3862   1.3922   1.3925
     1.3964   1.4113   1.4509   1.4512   1.4520   1.4526   1.4969   1.4970
     1.5421   1.5421   1.6115   1.6186   1.6230   1.6232   1.6279   1.6280
     1.6373   2.3969   2.4024   2.4065   2.4116   2.4178   2.4274   4.6436
     4.6602   4.6637   4.6661   4.6677   4.6909   5.1403   5.5921   6.2701
     6.3409   6.3410   6.5888   6.5951   6.6101

          k = 0.0000 0.2309 0.0000 ( 34213 PWs)   bands (ev):

   -10.6004  -7.2959  -5.8639  -5.2193  -4.6281  -4.6236  -4.1041  -4.0115
    -3.6913  -3.6880  -3.5579  -3.5565  -3.4012  -3.3154  -3.3142  -3.1355
    -3.0272  -3.0245  -2.9613  -2.6799  -2.4869  -2.4837  -2.4055  -2.3859
    -2.3857  -2.1226  -2.1213  -2.0616  -2.0180  -2.0153  -1.9813  -1.9500
    -1.9416  -1.8594  -1.8568  -1.8502  -1.8184  -1.8132  -1.7066  -1.7034
    -1.6834  -1.6757  -1.5650  -1.5628  -1.5093  -1.5067  -1.4772  -1.4500
    -1.3885  -1.3858  -1.3751  -1.3676  -1.2296  -1.2271  -1.1554  -1.1488
    -1.1187  -1.0119  -1.0077  -0.9812  -0.9790  -0.9593  -0.9291  -0.7643
    -0.7615  -0.7158  -0.7141  -0.6861  -0.6822  -0.6136  -0.6077  -0.5744
    -0.5722  -0.5335  -0.4732  -0.4565  -0.3418  -0.3362  -0.3314  -0.3233
    -0.3181  -0.3107  -0.3014  -0.2771  -0.2643  -0.2610  -0.2554  -0.2353
    -0.2340  -0.2222  -0.2153  -0.2086  -0.2004  -0.1923  -0.1703  -0.1657
    -0.1527  -0.1512  -0.1388  -0.1139  -0.1061  -0.0910  -0.0756  -0.0692
    -0.0581  -0.0553  -0.0489  -0.0403  -0.0309  -0.0260  -0.0182   0.0273
     0.0418   0.0477   0.0609   0.0706   0.1349   0.2648   0.2704   0.3535
     0.3640   0.3655   0.4036   0.4320   0.4380   0.4425   0.4439   0.5431
     0.5475   0.5931   0.6548   0.6595   0.6748   0.6828   0.7078   0.7122
     0.7310   0.7370   0.7486   0.7911   0.7969   0.8080   0.8089   0.8460
     0.8919   0.9135   0.9388   0.9395   0.9706   0.9954   1.0107   1.0182
     1.0262   1.0323   1.0718   1.0848   1.1018   1.1062   1.1129   1.1148
     1.1862   1.1871   1.2593   1.2614   1.2673   1.2739   1.2783   1.2957
     1.3169   1.3228   1.3276   1.3472   1.3498   1.3621   1.3657   1.3798
     1.4116   1.4139   1.4230   1.4520   1.4525   1.4994   1.5004   1.5452
     1.5589   1.5644   1.5658   1.5864   1.5898   1.5944   1.6407   1.6421
     1.6546   1.6845   1.7032   1.7065   1.7240   1.8540   1.8595   1.8933
     1.9530   2.2789   2.2824   2.3799   2.9092   2.9158   3.0470   3.7888
     4.3206   4.3396   4.8375   4.8391   5.2254   5.2344   5.2936   5.3524
     5.5811   5.5842   5.6534   5.7369   6.4207

          k = 0.0000 0.4619 0.0000 ( 34234 PWs)   bands (ev):

   -10.6003  -6.8491  -6.1359  -5.4420  -4.8366  -4.8352  -4.7845  -3.7210
    -3.6794  -3.6782  -3.3180  -3.3151  -3.1670  -3.0839  -3.0815  -2.9712
    -2.8759  -2.8047  -2.6941  -2.6937  -2.5197  -2.5171  -2.4601  -2.4549
    -2.3692  -2.3680  -2.3504  -2.2825  -2.2140  -2.2139  -2.1570  -2.0308
    -1.9933  -1.9904  -1.8969  -1.8900  -1.7869  -1.7799  -1.7321  -1.7267
    -1.6445  -1.6431  -1.5769  -1.5713  -1.5672  -1.3608  -1.3596  -1.3136
    -1.3133  -1.2519  -1.2401  -1.2272  -1.2214  -1.2074  -1.2058  -1.1742
    -1.0834  -1.0816  -1.0560  -1.0535  -0.9301  -0.9087  -0.8618  -0.8585
    -0.7409  -0.7403  -0.7307  -0.7288  -0.7108  -0.6632  -0.6460  -0.6458
    -0.6249  -0.6240  -0.5957  -0.5891  -0.5174  -0.5105  -0.4973  -0.4716
    -0.4661  -0.4594  -0.3758  -0.3647  -0.3604  -0.3078  -0.2799  -0.2775
    -0.2701  -0.2685  -0.2313  -0.2240  -0.2218  -0.2030  -0.1934  -0.1813
    -0.1498  -0.1281  -0.1271  -0.0844  -0.0680  -0.0650  -0.0016   0.0056
     0.0103   0.0147   0.0280   0.0368   0.0385   0.1170   0.1258   0.1266
     0.1390   0.1459   0.1616   0.1706   0.1770   0.1821   0.2245   0.2937
     0.2940   0.3096   0.3622   0.3835   0.4075   0.4129   0.4165   0.4284
     0.4299   0.4403   0.4828   0.5011   0.5068   0.5317   0.5379   0.5674
     0.6392   0.6965   0.7016   0.7218   0.7451   0.8006   0.8078   0.8107
     0.9004   0.9039   0.9150   0.9351   0.9482   0.9499   0.9572   0.9576
     1.0508   1.0574   1.0617   1.0968   1.1368   1.1375   1.1576   1.1596
     1.1667   1.1670   1.2311   1.2323   1.2785   1.2804   1.2892   1.3231
     1.3310   1.3355   1.3852   1.3886   1.3923   1.4171   1.4181   1.4514
     1.4523   1.5101   1.5122   1.5152   1.5551   1.5638   1.5655   1.5684
     1.5691   1.5762   1.5879   1.6579   1.7007   1.7009   1.7115   1.7124
     1.8144   1.8428   1.9829   2.2731   2.2753   2.3013   2.4183   2.4191
     2.7905   2.7962   2.9963   3.0692   3.3363   3.4651   3.4669   3.6422
     3.9169   3.9239   4.0622   4.0671   4.1695   4.1893   4.4323   4.6787
     5.2620   5.2683   6.0151   6.0171   6.1410

          k = 0.2000-0.1155 0.0000 ( 34213 PWs)   bands (ev):

   -10.6004  -7.2959  -5.8639  -5.2193  -4.6281  -4.6237  -4.1041  -4.0115
    -3.6913  -3.6880  -3.5581  -3.5563  -3.4012  -3.3156  -3.3140  -3.1355
    -3.0272  -3.0245  -2.9614  -2.6799  -2.4869  -2.4837  -2.4056  -2.3858
    -2.3857  -2.1226  -2.1213  -2.0616  -2.0179  -2.0154  -1.9812  -1.9500
    -1.9416  -1.8594  -1.8567  -1.8503  -1.8185  -1.8132  -1.7067  -1.7033
    -1.6835  -1.6756  -1.5650  -1.5628  -1.5094  -1.5067  -1.4772  -1.4499
    -1.3885  -1.3858  -1.3751  -1.3676  -1.2296  -1.2271  -1.1554  -1.1488
    -1.1187  -1.0118  -1.0077  -0.9813  -0.9791  -0.9594  -0.9289  -0.7643
    -0.7615  -0.7157  -0.7141  -0.6866  -0.6818  -0.6125  -0.6086  -0.5742
    -0.5723  -0.5335  -0.4732  -0.4565  -0.3386  -0.3362  -0.3342  -0.3243
    -0.3203  -0.3144  -0.2999  -0.2766  -0.2648  -0.2599  -0.2503  -0.2375
    -0.2340  -0.2224  -0.2137  -0.2088  -0.2004  -0.1944  -0.1702  -0.1662
    -0.1528  -0.1500  -0.1373  -0.1137  -0.1059  -0.0912  -0.0764  -0.0676
    -0.0590  -0.0544  -0.0512  -0.0414  -0.0312  -0.0255  -0.0139   0.0266
     0.0424   0.0494   0.0577   0.0693   0.1349   0.2650   0.2713   0.3534
     0.3639   0.3658   0.4036   0.4318   0.4381   0.4425   0.4438   0.5433
     0.5476   0.5931   0.6573   0.6605   0.6748   0.6791   0.7075   0.7134
     0.7309   0.7370   0.7483   0.7910   0.7970   0.8081   0.8088   0.8460
     0.8927   0.9135   0.9389   0.9395   0.9702   0.9941   1.0107   1.0179
     1.0264   1.0320   1.0719   1.0843   1.1019   1.1059   1.1130   1.1155
     1.1859   1.1875   1.2595   1.2613   1.2676   1.2737   1.2782   1.2957
     1.3168   1.3230   1.3278   1.3474   1.3494   1.3620   1.3658   1.3798
     1.4117   1.4139   1.4231   1.4520   1.4525   1.4993   1.5004   1.5452
     1.5590   1.5645   1.5660   1.5863   1.5898   1.5944   1.6407   1.6421
     1.6546   1.6845   1.7035   1.7064   1.7240   1.8540   1.8595   1.8931
     1.9531   2.2792   2.2814   2.3804   2.9099   2.9151   3.0469   3.7880
     4.3235   4.3374   4.8375   4.8391   5.2271   5.2328   5.2944   5.3520
     5.5815   5.5842   5.6517   5.7367   6.4265

          k = 0.2000 0.1155 0.0000 ( 34213 PWs)   bands (ev):

   -10.6004  -7.2959  -5.8639  -5.2193  -4.6282  -4.6236  -4.1041  -4.0115
    -3.6914  -3.6879  -3.5577  -3.5566  -3.4012  -3.3162  -3.3133  -3.1355
    -3.0272  -3.0244  -2.9613  -2.6799  -2.4871  -2.4835  -2.4056  -2.3858
    -2.3858  -2.1226  -2.1213  -2.0616  -2.0180  -2.0153  -1.9812  -1.9499
    -1.9416  -1.8594  -1.8568  -1.8503  -1.8185  -1.8131  -1.7065  -1.7036
    -1.6832  -1.6758  -1.5651  -1.5629  -1.5095  -1.5065  -1.4772  -1.4499
    -1.3886  -1.3858  -1.3752  -1.3674  -1.2293  -1.2275  -1.1554  -1.1488
    -1.1187  -1.0118  -1.0078  -0.9815  -0.9787  -0.9593  -0.9291  -0.7643
    -0.7615  -0.7156  -0.7141  -0.6874  -0.6805  -0.6154  -0.6057  -0.5742
    -0.5728  -0.5337  -0.4736  -0.4563  -0.3423  -0.3362  -0.3346  -0.3222
    -0.3195  -0.3109  -0.2986  -0.2764  -0.2662  -0.2609  -0.2485  -0.2388
    -0.2339  -0.2262  -0.2147  -0.2077  -0.2004  -0.1903  -0.1700  -0.1658
    -0.1547  -0.1466  -0.1416  -0.1125  -0.1060  -0.0912  -0.0771  -0.0704
    -0.0590  -0.0529  -0.0505  -0.0417  -0.0310  -0.0281  -0.0132   0.0261
     0.0438   0.0471   0.0602   0.0703   0.1349   0.2667   0.2690   0.3535
     0.3633   0.3670   0.4036   0.4318   0.4377   0.4425   0.4441   0.5442
     0.5469   0.5931   0.6560   0.6607   0.6748   0.6802   0.7072   0.7131
     0.7308   0.7370   0.7484   0.7908   0.7971   0.8081   0.8089   0.8460
     0.8933   0.9135   0.9388   0.9397   0.9707   0.9938   1.0106   1.0177
     1.0273   1.0318   1.0719   1.0828   1.1009   1.1081   1.1128   1.1145
     1.1858   1.1877   1.2594   1.2613   1.2670   1.2742   1.2784   1.2956
     1.3172   1.3228   1.3275   1.3475   1.3495   1.3623   1.3657   1.3798
     1.4116   1.4139   1.4230   1.4521   1.4525   1.4994   1.5004   1.5453
     1.5589   1.5644   1.5657   1.5862   1.5899   1.5944   1.6407   1.6422
     1.6546   1.6858   1.7025   1.7062   1.7240   1.8543   1.8594   1.8931
     1.9529   2.2787   2.2830   2.3799   2.9109   2.9143   3.0466   3.7888
     4.3250   4.3354   4.8374   4.8392   5.2275   5.2326   5.2931   5.3523
     5.5819   5.5840   5.6532   5.7371   6.4213

          k = 0.2000 0.3464 0.0000 ( 34230 PWs)   bands (ev):

   -10.6003  -6.9965  -5.6064  -5.5925  -5.5706  -4.3260  -4.3004  -3.8844
    -3.8715  -3.8388  -3.3173  -3.3148  -3.0578  -3.0478  -3.0325  -3.0244
    -2.9112  -2.8381  -2.8292  -2.8241  -2.8126  -2.4331  -2.3946  -2.3101
    -2.3067  -2.2975  -2.2881  -2.2852  -2.1506  -2.0806  -2.0707  -2.0641
    -2.0598  -2.0494  -1.8989  -1.8897  -1.8509  -1.8288  -1.7537  -1.7407
    -1.6361  -1.6223  -1.5803  -1.5038  -1.4956  -1.4478  -1.4270  -1.3095
    -1.3004  -1.2983  -1.2923  -1.2756  -1.2448  -1.2018  -1.1333  -1.0810
    -1.0669  -1.0591  -1.0531  -0.9732  -0.9684  -0.9611  -0.9584  -0.7776
    -0.7679  -0.7616  -0.7550  -0.7267  -0.6791  -0.6722  -0.6344  -0.6105
    -0.5994  -0.5850  -0.4878  -0.4765  -0.4668  -0.4562  -0.4480  -0.4442
    -0.3874  -0.3794  -0.3705  -0.3577  -0.3221  -0.3189  -0.2847  -0.2622
    -0.2387  -0.2361  -0.2269  -0.2219  -0.2164  -0.2101  -0.1954  -0.1909
    -0.1861  -0.1729  -0.1697  -0.1557  -0.1400  -0.1267  -0.1150  -0.1009
    -0.0961  -0.0635   0.0108   0.0173   0.0326   0.0350   0.0453   0.0484
     0.0599   0.1319   0.1459   0.1584   0.1787   0.2586   0.2687   0.3073
     0.3190   0.3925   0.4029   0.4093   0.4363   0.4413   0.4470   0.4546
     0.4609   0.4882   0.5446   0.5549   0.5652   0.5908   0.7382   0.7433
     0.7577   0.7633   0.7645   0.7698   0.7749   0.7794   0.7845   0.8248
     0.8438   0.8474   0.8641   0.8752   0.9344   0.9402   0.9742   0.9936
     0.9980   1.0127   1.0262   1.0306   1.0345   1.0438   1.0485   1.0605
     1.0892   1.0971   1.2345   1.2463   1.3066   1.3110   1.3285   1.3347
     1.3436   1.3899   1.4216   1.4270   1.4318   1.4387   1.4416   1.4503
     1.4946   1.5011   1.5102   1.5128   1.5213   1.5252   1.5808   1.5921
     1.5969   1.5996   1.6033   1.6326   1.6979   1.7429   1.7451   1.8131
     1.8212   1.8597   1.8654   1.9494   1.9592   2.1317   2.1888   2.1899
     2.7336   2.7381   2.9513   2.9607   3.0651   3.4724   3.4913   3.5186
     3.6915   3.6992   4.1416   4.3780   4.9709   5.1287   5.1406   5.1457
     5.1885   5.4090   5.4201   5.4637   5.5131

          k = 0.2000-0.5774 0.0000 ( 34250 PWs)   bands (ev):

   -10.6003  -6.4247  -6.4057  -5.7228  -5.0527  -5.0262  -4.4173  -3.9421
    -3.3795  -3.3626  -3.3161  -3.3081  -3.0915  -3.0824  -3.0215  -2.8747
    -2.8400  -2.8128  -2.6909  -2.6854  -2.6241  -2.6193  -2.5381  -2.5283
    -2.5149  -2.5007  -2.2479  -2.1784  -2.1662  -2.1520  -2.1365  -2.0920
    -2.0694  -2.0542  -2.0154  -1.9827  -1.9769  -1.8198  -1.8096  -1.6732
    -1.6658  -1.5495  -1.5445  -1.5055  -1.4960  -1.4644  -1.4261  -1.4208
    -1.1942  -1.1817  -1.1617  -1.1277  -1.1097  -1.0982  -1.0842  -1.0833
    -1.0580  -1.0394  -1.0324  -1.0185  -1.0140  -0.9638  -0.8602  -0.8522
    -0.8257  -0.8169  -0.7896  -0.7753  -0.7579  -0.6918  -0.6720  -0.6350
    -0.6132  -0.5811  -0.5326  -0.5307  -0.5221  -0.5084  -0.4876  -0.4668
    -0.4629  -0.4453  -0.4358  -0.4200  -0.3630  -0.3500  -0.3419  -0.3313
    -0.3244  -0.2789  -0.2769  -0.2718  -0.2662  -0.2408  -0.2294  -0.2160
    -0.1971  -0.1737  -0.1193  -0.1142  -0.0916  -0.0816  -0.0708  -0.0581
    -0.0207  -0.0156   0.0140   0.0238   0.0265   0.0296   0.0592   0.0654
     0.0901   0.0910   0.1981   0.2572   0.2718   0.3282   0.3342   0.3474
     0.3625   0.3737   0.3854   0.3953   0.4170   0.4213   0.4254   0.4295
     0.4408   0.4753   0.5010   0.5033   0.5203   0.5293   0.5995   0.6124
     0.6788   0.6887   0.6931   0.7024   0.7879   0.7884   0.8073   0.8131
     0.8232   0.8450   0.8480   0.8707   0.9313   0.9407   0.9464   0.9500
     0.9759   0.9788   0.9820   0.9908   1.0323   1.0423   1.1066   1.1090
     1.1230   1.1802   1.1863   1.1957   1.1973   1.3209   1.3481   1.3618
     1.3624   1.3994   1.4051   1.4542   1.4679   1.4810   1.4885   1.5044
     1.5068   1.5091   1.5570   1.5614   1.5781   1.5835   1.5861   1.5891
     1.5928   1.6194   1.6986   1.7009   1.7045   1.7070   1.7120   1.7448
     1.8608   1.8623   1.9918   2.5227   2.5257   2.6272   2.7316   2.7634
     2.8846   2.8876   2.9840   3.2241   3.2298   3.3829   3.6644   3.8876
     3.8967   4.0149   4.0370   4.0526   4.0649   4.2584   4.3079   4.6924
     4.7075   4.9938   5.1100   5.4458   5.4568

          k = 0.2000-0.3464 0.0000 ( 34230 PWs)   bands (ev):

   -10.6003  -6.9965  -5.6063  -5.5926  -5.5705  -4.3259  -4.3005  -3.8844
    -3.8716  -3.8388  -3.3166  -3.3156  -3.0577  -3.0478  -3.0328  -3.0242
    -2.9112  -2.8381  -2.8293  -2.8242  -2.8125  -2.4331  -2.3946  -2.3102
    -2.3067  -2.2975  -2.2880  -2.2852  -2.1507  -2.0807  -2.0707  -2.0641
    -2.0596  -2.0495  -1.8990  -1.8896  -1.8508  -1.8288  -1.7537  -1.7406
    -1.6361  -1.6223  -1.5803  -1.5040  -1.4954  -1.4477  -1.4271  -1.3094
    -1.3005  -1.2983  -1.2924  -1.2755  -1.2447  -1.2018  -1.1333  -1.0808
    -1.0670  -1.0595  -1.0529  -0.9732  -0.9682  -0.9612  -0.9583  -0.7777
    -0.7694  -0.7615  -0.7539  -0.7267  -0.6791  -0.6720  -0.6342  -0.6112
    -0.5953  -0.5887  -0.4889  -0.4754  -0.4643  -0.4565  -0.4479  -0.4463
    -0.3878  -0.3792  -0.3692  -0.3617  -0.3213  -0.3197  -0.2844  -0.2589
    -0.2398  -0.2355  -0.2291  -0.2249  -0.2168  -0.2047  -0.1962  -0.1932
    -0.1821  -0.1753  -0.1660  -0.1508  -0.1394  -0.1348  -0.1158  -0.0996
    -0.0952  -0.0635   0.0106   0.0169   0.0314   0.0346   0.0451   0.0498
     0.0596   0.1306   0.1450   0.1602   0.1801   0.2587   0.2690   0.3074
     0.3189   0.3926   0.4031   0.4091   0.4365   0.4421   0.4462   0.4545
     0.4608   0.4877   0.5434   0.5523   0.5682   0.5914   0.7371   0.7443
     0.7578   0.7625   0.7666   0.7701   0.7724   0.7803   0.7850   0.8244
     0.8437   0.8473   0.8625   0.8764   0.9333   0.9417   0.9723   0.9936
     0.9994   1.0132   1.0260   1.0303   1.0342   1.0440   1.0489   1.0602
     1.0895   1.0971   1.2353   1.2455   1.3065   1.3112   1.3284   1.3351
     1.3433   1.3898   1.4212   1.4274   1.4316   1.4389   1.4415   1.4503
     1.4945   1.5013   1.5103   1.5133   1.5213   1.5246   1.5809   1.5920
     1.5971   1.5997   1.6030   1.6326   1.6980   1.7428   1.7451   1.8130
     1.8212   1.8565   1.8690   1.9492   1.9597   2.1316   2.1888   2.1894
     2.7339   2.7377   2.9523   2.9589   3.0658   3.4676   3.4953   3.5184
     3.6905   3.7001   4.1416   4.3780   4.9708   5.1322   5.1391   5.1454
     5.1870   5.4083   5.4207   5.4636   5.5134

          k = 0.4000-0.2309 0.0000 ( 34234 PWs)   bands (ev):

   -10.6003  -6.8491  -6.1359  -5.4420  -4.8366  -4.8352  -4.7845  -3.7209
    -3.6793  -3.6784  -3.3184  -3.3147  -3.1670  -3.0838  -3.0815  -2.9712
    -2.8759  -2.8047  -2.6941  -2.6937  -2.5197  -2.5171  -2.4601  -2.4549
    -2.3693  -2.3680  -2.3504  -2.2825  -2.2139  -2.2139  -2.1570  -2.0309
    -1.9933  -1.9904  -1.8968  -1.8901  -1.7868  -1.7799  -1.7321  -1.7268
    -1.6444  -1.6432  -1.5769  -1.5712  -1.5672  -1.3608  -1.3595  -1.3137
    -1.3133  -1.2519  -1.2401  -1.2271  -1.2215  -1.2074  -1.2058  -1.1742
    -1.0834  -1.0815  -1.0560  -1.0536  -0.9302  -0.9086  -0.8617  -0.8584
    -0.7418  -0.7395  -0.7306  -0.7290  -0.7108  -0.6633  -0.6461  -0.6453
    -0.6249  -0.6242  -0.5966  -0.5888  -0.5184  -0.5101  -0.4973  -0.4711
    -0.4664  -0.4588  -0.3764  -0.3638  -0.3603  -0.3073  -0.2805  -0.2777
    -0.2699  -0.2685  -0.2318  -0.2240  -0.2220  -0.2065  -0.1898  -0.1810
    -0.1498  -0.1282  -0.1265  -0.0843  -0.0678  -0.0653  -0.0015   0.0043
     0.0108   0.0146   0.0287   0.0369   0.0390   0.1170   0.1258   0.1264
     0.1388   0.1450   0.1624   0.1713   0.1768   0.1837   0.2237   0.2936
     0.2945   0.3096   0.3621   0.3835   0.4085   0.4135   0.4167   0.4282
     0.4298   0.4445   0.4754   0.5009   0.5071   0.5306   0.5409   0.5674
     0.6392   0.6966   0.7010   0.7227   0.7451   0.7991   0.8080   0.8101
     0.9005   0.9039   0.9151   0.9350   0.9483   0.9508   0.9567   0.9575
     1.0507   1.0574   1.0617   1.0969   1.1368   1.1375   1.1578   1.1593
     1.1666   1.1672   1.2306   1.2331   1.2783   1.2801   1.2893   1.3230
     1.3308   1.3356   1.3852   1.3886   1.3923   1.4171   1.4179   1.4514
     1.4522   1.5101   1.5123   1.5153   1.5552   1.5637   1.5655   1.5686
     1.5691   1.5762   1.5878   1.6579   1.7007   1.7009   1.7113   1.7123
     1.8144   1.8428   1.9829   2.2727   2.2748   2.3022   2.4183   2.4190
     2.7906   2.7961   2.9960   3.0690   3.3349   3.4651   3.4669   3.6423
     3.9171   3.9233   4.0623   4.0669   4.1728   4.1874   4.4314   4.6789
     5.2622   5.2681   6.0153   6.0171   6.1478

          k = 0.4000 0.0000 0.0000 ( 34230 PWs)   bands (ev):

   -10.6003  -6.9965  -5.6064  -5.5925  -5.5706  -4.3260  -4.3003  -3.8843
    -3.8717  -3.8387  -3.3175  -3.3147  -3.0577  -3.0478  -3.0324  -3.0245
    -2.9111  -2.8382  -2.8294  -2.8242  -2.8123  -2.4330  -2.3946  -2.3102
    -2.3067  -2.2975  -2.2880  -2.2852  -2.1506  -2.0807  -2.0707  -2.0641
    -2.0597  -2.0494  -1.8989  -1.8898  -1.8508  -1.8288  -1.7536  -1.7407
    -1.6361  -1.6223  -1.5803  -1.5038  -1.4956  -1.4479  -1.4268  -1.3095
    -1.3003  -1.2983  -1.2923  -1.2756  -1.2447  -1.2018  -1.1333  -1.0806
    -1.0672  -1.0595  -1.0528  -0.9731  -0.9686  -0.9610  -0.9582  -0.7777
    -0.7683  -0.7619  -0.7542  -0.7267  -0.6791  -0.6721  -0.6341  -0.6104
    -0.5984  -0.5863  -0.4865  -0.4795  -0.4655  -0.4563  -0.4477  -0.4454
    -0.3875  -0.3795  -0.3711  -0.3576  -0.3284  -0.3134  -0.2859  -0.2585
    -0.2392  -0.2359  -0.2303  -0.2180  -0.2168  -0.2078  -0.1955  -0.1930
    -0.1870  -0.1742  -0.1690  -0.1543  -0.1400  -0.1263  -0.1148  -0.1048
    -0.0928  -0.0629   0.0097   0.0192   0.0315   0.0350   0.0450   0.0468
     0.0618   0.1324   0.1434   0.1601   0.1798   0.2586   0.2689   0.3073
     0.3189   0.3925   0.4031   0.4092   0.4363   0.4418   0.4480   0.4549
     0.4609   0.4870   0.5450   0.5537   0.5649   0.5907   0.7390   0.7437
     0.7572   0.7628   0.7644   0.7699   0.7749   0.7794   0.7848   0.8245
     0.8439   0.8476   0.8657   0.8728   0.9339   0.9405   0.9736   0.9946
     0.9977   1.0130   1.0259   1.0305   1.0343   1.0440   1.0485   1.0604
     1.0892   1.0972   1.2344   1.2464   1.3066   1.3110   1.3282   1.3351
     1.3432   1.3900   1.4216   1.4269   1.4318   1.4388   1.4416   1.4503
     1.4946   1.5011   1.5103   1.5135   1.5209   1.5249   1.5809   1.5922
     1.5969   1.5996   1.6031   1.6326   1.6980   1.7430   1.7449   1.8131
     1.8213   1.8595   1.8657   1.9497   1.9593   2.1311   2.1889   2.1898
     2.7335   2.7379   2.9527   2.9593   3.0649   3.4708   3.4920   3.5186
     3.6927   3.6981   4.1416   4.3780   4.9711   5.1302   5.1407   5.1497
     5.1827   5.4101   5.4194   5.4638   5.5132

          k = 0.4000 0.2309 0.0000 ( 34234 PWs)   bands (ev):

   -10.6003  -6.8491  -6.1359  -5.4420  -4.8366  -4.8351  -4.7845  -3.7210
    -3.6795  -3.6780  -3.3191  -3.3140  -3.1670  -3.0839  -3.0815  -2.9712
    -2.8759  -2.8047  -2.6941  -2.6937  -2.5198  -2.5170  -2.4604  -2.4546
    -2.3693  -2.3680  -2.3504  -2.2825  -2.2140  -2.2139  -2.1570  -2.0309
    -1.9934  -1.9904  -1.8968  -1.8900  -1.7868  -1.7799  -1.7321  -1.7267
    -1.6445  -1.6431  -1.5769  -1.5713  -1.5671  -1.3607  -1.3597  -1.3137
    -1.3134  -1.2520  -1.2401  -1.2265  -1.2220  -1.2074  -1.2057  -1.1742
    -1.0835  -1.0814  -1.0556  -1.0540  -0.9302  -0.9085  -0.8614  -0.8586
    -0.7430  -0.7381  -0.7305  -0.7289  -0.7109  -0.6633  -0.6464  -0.6453
    -0.6250  -0.6246  -0.5976  -0.5868  -0.5191  -0.5078  -0.4974  -0.4708
    -0.4663  -0.4599  -0.3768  -0.3630  -0.3607  -0.3079  -0.2805  -0.2777
    -0.2725  -0.2683  -0.2325  -0.2256  -0.2207  -0.2032  -0.1954  -0.1770
    -0.1498  -0.1287  -0.1259  -0.0845  -0.0674  -0.0659  -0.0016   0.0049
     0.0110   0.0135   0.0278   0.0355   0.0413   0.1171   0.1257   0.1274
     0.1387   0.1447   0.1623   0.1702   0.1794   0.1810   0.2243   0.2932
     0.2950   0.3095   0.3621   0.3835   0.4088   0.4129   0.4167   0.4289
     0.4298   0.4447   0.4780   0.5009   0.5066   0.5298   0.5386   0.5674
     0.6392   0.6963   0.7016   0.7249   0.7451   0.7998   0.8076   0.8085
     0.9005   0.9039   0.9148   0.9353   0.9477   0.9506   0.9568   0.9581
     1.0508   1.0574   1.0617   1.0969   1.1370   1.1371   1.1579   1.1590
     1.1668   1.1671   1.2299   1.2337   1.2780   1.2802   1.2892   1.3231
     1.3311   1.3353   1.3852   1.3886   1.3923   1.4174   1.4179   1.4514
     1.4522   1.5102   1.5121   1.5152   1.5551   1.5637   1.5655   1.5686
     1.5691   1.5762   1.5875   1.6579   1.7005   1.7010   1.7115   1.7124
     1.8144   1.8428   1.9828   2.2739   2.2757   2.3008   2.4181   2.4190
     2.7909   2.7958   2.9958   3.0692   3.3368   3.4650   3.4670   3.6422
     3.9179   3.9223   4.0626   4.0665   4.1748   4.1855   4.4314   4.6790
     5.2626   5.2675   6.0151   6.0170   6.1447

          k = 0.4000-0.6928 0.0000 ( 34250 PWs)   bands (ev):

   -10.6003  -6.4246  -6.4057  -5.7228  -5.0525  -5.0264  -4.4173  -3.9421
    -3.3785  -3.3638  -3.3156  -3.3085  -3.0915  -3.0824  -3.0215  -2.8747
    -2.8400  -2.8128  -2.6908  -2.6855  -2.6242  -2.6192  -2.5382  -2.5282
    -2.5149  -2.5007  -2.2478  -2.1785  -2.1663  -2.1519  -2.1365  -2.0920
    -2.0695  -2.0541  -2.0154  -1.9826  -1.9770  -1.8199  -1.8096  -1.6732
    -1.6658  -1.5495  -1.5445  -1.5055  -1.4960  -1.4643  -1.4264  -1.4206
    -1.1940  -1.1820  -1.1616  -1.1277  -1.1098  -1.0982  -1.0842  -1.0832
    -1.0578  -1.0397  -1.0326  -1.0184  -1.0140  -0.9639  -0.8595  -0.8525
    -0.8252  -0.8177  -0.7896  -0.7751  -0.7579  -0.6916  -0.6719  -0.6362
    -0.6128  -0.5810  -0.5328  -0.5309  -0.5222  -0.5069  -0.4876  -0.4670
    -0.4629  -0.4426  -0.4335  -0.4246  -0.3631  -0.3479  -0.3421  -0.3328
    -0.3261  -0.2788  -0.2772  -0.2726  -0.2656  -0.2434  -0.2289  -0.2180
    -0.1965  -0.1705  -0.1184  -0.1144  -0.0921  -0.0800  -0.0663  -0.0632
    -0.0213  -0.0156   0.0143   0.0234   0.0280   0.0287   0.0598   0.0651
     0.0901   0.0909   0.1977   0.2613   0.2700   0.3271   0.3305   0.3487
     0.3641   0.3729   0.3857   0.4046   0.4169   0.4214   0.4258   0.4293
     0.4315   0.4736   0.4994   0.5045   0.5190   0.5331   0.6005   0.6128
     0.6797   0.6883   0.6917   0.7029   0.7878   0.7884   0.8073   0.8160
     0.8200   0.8452   0.8480   0.8702   0.9318   0.9404   0.9464   0.9493
     0.9756   0.9790   0.9842   0.9890   1.0328   1.0419   1.1064   1.1091
     1.1226   1.1820   1.1847   1.1957   1.1974   1.3206   1.3482   1.3617
     1.3624   1.3998   1.4049   1.4541   1.4679   1.4822   1.4870   1.5046
     1.5068   1.5089   1.5571   1.5613   1.5778   1.5849   1.5862   1.5879
     1.5928   1.6194   1.6986   1.7009   1.7045   1.7070   1.7119   1.7448
     1.8609   1.8623   1.9919   2.5226   2.5258   2.6270   2.7303   2.7649
     2.8852   2.8868   2.9841   3.2242   3.2297   3.3830   3.6642   3.8881
     3.8966   4.0121   4.0411   4.0503   4.0651   4.2586   4.3079   4.6924
     4.7073   4.9951   5.1095   5.4457   5.4570

          k = 0.4000-0.4619 0.0000 ( 34250 PWs)   bands (ev):

   -10.6003  -6.4247  -6.4057  -5.7228  -5.0526  -5.0263  -4.4173  -3.9421
    -3.3815  -3.3597  -3.3139  -3.3114  -3.0915  -3.0824  -3.0214  -2.8747
    -2.8400  -2.8128  -2.6909  -2.6854  -2.6241  -2.6192  -2.5381  -2.5283
    -2.5149  -2.5008  -2.2479  -2.1785  -2.1662  -2.1520  -2.1365  -2.0920
    -2.0694  -2.0542  -2.0154  -1.9828  -1.9769  -1.8198  -1.8096  -1.6733
    -1.6657  -1.5495  -1.5444  -1.5056  -1.4960  -1.4644  -1.4260  -1.4209
    -1.1945  -1.1815  -1.1617  -1.1277  -1.1097  -1.0982  -1.0841  -1.0835
    -1.0578  -1.0394  -1.0325  -1.0187  -1.0141  -0.9637  -0.8602  -0.8521
    -0.8248  -0.8175  -0.7898  -0.7751  -0.7580  -0.6918  -0.6717  -0.6363
    -0.6131  -0.5813  -0.5327  -0.5309  -0.5221  -0.5084  -0.4876  -0.4667
    -0.4629  -0.4453  -0.4334  -0.4215  -0.3645  -0.3472  -0.3428  -0.3306
    -0.3253  -0.2785  -0.2764  -0.2717  -0.2669  -0.2407  -0.2301  -0.2142
    -0.1972  -0.1776  -0.1178  -0.1147  -0.0910  -0.0815  -0.0712  -0.0570
    -0.0209  -0.0152   0.0142   0.0242   0.0270   0.0297   0.0590   0.0654
     0.0901   0.0907   0.1972   0.2595   0.2713   0.3285   0.3372   0.3436
     0.3626   0.3729   0.3857   0.3976   0.4170   0.4210   0.4255   0.4292
     0.4373   0.4768   0.5002   0.5037   0.5194   0.5307   0.5966   0.6159
     0.6790   0.6891   0.6924   0.7026   0.7876   0.7888   0.8073   0.8129
     0.8225   0.8451   0.8479   0.8712   0.9316   0.9409   0.9462   0.9492
     0.9756   0.9789   0.9821   0.9910   1.0320   1.0424   1.1064   1.1088
     1.1229   1.1800   1.1868   1.1956   1.1972   1.3210   1.3482   1.3617
     1.3623   1.3994   1.4051   1.4541   1.4681   1.4818   1.4877   1.5042
     1.5065   1.5092   1.5571   1.5613   1.5781   1.5840   1.5863   1.5894
     1.5923   1.6194   1.6987   1.7011   1.7045   1.7068   1.7120   1.7448
     1.8608   1.8622   1.9919   2.5227   2.5257   2.6271   2.7367   2.7577
     2.8850   2.8870   2.9840   3.2243   3.2297   3.3834   3.6641   3.8877
     3.8969   4.0117   4.0385   4.0534   4.0638   4.2585   4.3082   4.6922
     4.7078   4.9955   5.1098   5.4456   5.4571

     the Fermi energy is     1.3796 ev

!    total energy              =   -6706.88638407 Ry
     total all-electron energy =   -109576.751856 Ry
     estimated scf accuracy    <       0.00000087 Ry
     smearing contrib. (-TS)   =      -0.00328677 Ry
     internal energy E=F+TS    =   -6706.88309730 Ry

     The total energy is F=E-TS. E is the sum of the following terms:
     one-electron contribution =  -33750.46542196 Ry
     hartree contribution      =   17262.21478780 Ry
     xc contribution           =   -1508.46162400 Ry
     ewald contribution        =   14359.01211937 Ry
     DFT-D3 Dispersion         =      -0.68442461 Ry
     one-center paw contrib.   =   -3068.49853391 Ry

     total magnetization       =    24.65 Bohr mag/cell
     absolute magnetization    =    30.32 Bohr mag/cell

     convergence has been achieved in  41 iterations

     negative rho (up, down):  9.344E-03 7.657E-03

     Forces acting on atoms (cartesian axes, Ry/au):

     atom    1 type  1   force =     0.00003492    0.00000702    0.00666238
     atom    2 type  1   force =    -0.00005829    0.00003288    0.00675886
     atom    3 type  1   force =     0.00005786    0.00013290    0.00718741
     atom    4 type  1   force =     0.00003106   -0.00008449    0.00678672
     atom    5 type  1   force =     0.00011681    0.00006436    0.00680811
     atom    6 type  1   force =    -0.00011287   -0.00003403    0.00688915
     atom    7 type  1   force =     0.00016196   -0.00007150    0.00711685
     atom    8 type  1   force =    -0.00006577   -0.00010741    0.00682126
     atom    9 type  1   force =    -0.00005623   -0.00005483    0.00730487
     atom   10 type  1   force =    -0.00002298    0.00000027   -0.00896126
     atom   11 type  1   force =    -0.00108960   -0.00114063   -0.00842053
     atom   12 type  1   force =     0.00114259   -0.00110682   -0.00837035
     atom   13 type  1   force =    -0.00154004   -0.00042195   -0.00844189
     atom   14 type  1   force =     0.00007060   -0.00002974   -0.01056193
     atom   15 type  1   force =     0.00151927   -0.00044423   -0.00858198
     atom   16 type  1   force =    -0.00041282    0.00153722   -0.00816487
     atom   17 type  1   force =     0.00043896    0.00149020   -0.00847435
     atom   18 type  1   force =     0.00000854   -0.00000167   -0.00297424
     atom   19 type  1   force =     0.00031665   -0.00027197    0.00641285
     atom   20 type  1   force =    -0.00030161   -0.00024529    0.00617110
     atom   21 type  1   force =     0.00000303    0.00124637    0.00090283
     atom   22 type  1   force =     0.00000732    0.00377831   -0.00402424
     atom   23 type  1   force =     0.00116425   -0.00072570    0.00090292
     atom   24 type  1   force =    -0.00112608   -0.00062542    0.00097585
     atom   25 type  1   force =    -0.00330397   -0.00183964   -0.00410126
     atom   26 type  1   force =     0.00009728    0.00041315    0.00643395
     atom   27 type  1   force =     0.00325321   -0.00186348   -0.00399723
     atom   28 type  1   force =     0.00664592    0.00386215   -0.00849168
     atom   29 type  1   force =    -0.00655315    0.00401873   -0.00604886
     atom   30 type  1   force =     0.00010855    0.00081549    0.00481533
     atom   31 type  1   force =    -0.00009041   -0.00773651   -0.00791192
     atom   32 type  1   force =    -0.01181830   -0.00694031    0.00680384
     atom   33 type  1   force =     0.01196645   -0.00679689    0.00523434
     atom   34 type  1   force =     0.00069889   -0.00031929    0.00439759
     atom   35 type  1   force =     0.00010948    0.01366541    0.00524198
     atom   36 type  1   force =    -0.00077504   -0.00052255    0.00431650
     atom   37 type  2   force =    -0.01963458   -0.03738352    0.11607023
     atom   38 type  3   force =     0.01275784    0.00569874   -0.04235344
     atom   39 type  3   force =    -0.00262999    0.01066354   -0.04333665
     atom   40 type  3   force =     0.00888027    0.02134113   -0.03779823

     Total force =     0.150014     Total SCF correction =     0.003362


     Computing stress (Cartesian axis) and pressure


     negative rho (up, down):  9.344E-03 7.657E-03
          total   stress  (Ry/bohr**3)                   (kbar)     P=      -24.61
  -0.00021585  -0.00000049   0.00000122          -31.75       -0.07        0.18
  -0.00000049  -0.00021663   0.00000257           -0.07      -31.87        0.38
   0.00000122   0.00000257  -0.00006949            0.18        0.38      -10.22


     Writing all to output data dir ./pwscf.save/

     init_run     :      9.05s CPU      9.35s WALL (       1 calls)
     electrons    :    677.72s CPU    686.82s WALL (       1 calls)
     forces       :      3.65s CPU      3.70s WALL (       1 calls)
     force_dftd3  :      0.09s CPU      0.10s WALL (       1 calls)
     stress       :     10.66s CPU     10.76s WALL (       1 calls)
     stres_dftd3  :      0.09s CPU      0.09s WALL (       1 calls)

     Called by init_run:
     wfcinit      :      8.12s CPU      8.38s WALL (       1 calls)
     potinit      :      0.29s CPU      0.31s WALL (       1 calls)
     hinit0       :      0.56s CPU      0.57s WALL (       1 calls)

     Called by electrons:
     c_bands      :    596.38s CPU    604.16s WALL (      41 calls)
     sum_band     :     65.13s CPU     66.19s WALL (      41 calls)
     v_of_rho     :      0.50s CPU      0.51s WALL (      42 calls)
     newd         :      0.97s CPU      0.99s WALL (      42 calls)
     PAW_pot      :      8.69s CPU      8.80s WALL (      42 calls)
     mix_rho      :      6.15s CPU      6.24s WALL (      41 calls)
     energy_dftd3 :      0.05s CPU      0.05s WALL (       1 calls)

     Called by c_bands:
     init_us_2    :      2.59s CPU      2.65s WALL (    2210 calls)
     init_us_2:cp :      2.59s CPU      2.65s WALL (    2210 calls)
     cegterg      :    581.17s CPU    588.64s WALL (    1066 calls)

     Called by *egterg:
     cdiaghg      :    160.55s CPU    162.10s WALL (    4004 calls)
     h_psi        :    251.03s CPU    255.24s WALL (    4030 calls)
     s_psi        :     47.45s CPU     47.95s WALL (    4030 calls)
     g_psi        :      0.67s CPU      0.68s WALL (    2938 calls)

     Called by h_psi:
     h_psi:calbec :     58.10s CPU     58.81s WALL (    4030 calls)
     vloc_psi     :    145.28s CPU    148.26s WALL (    4030 calls)
     add_vuspsi   :     47.29s CPU     47.80s WALL (    4030 calls)

     General routines
     calbec       :     88.04s CPU     89.09s WALL (    5226 calls)
     fft          :      1.14s CPU      1.15s WALL (     924 calls)
     ffts         :      4.24s CPU      4.30s WALL (   14214 calls)
     fftw         :    168.53s CPU    171.98s WALL ( 1210634 calls)

     Parallel routines

     PWSCF        :  11m44.91s CPU  11m58.17s WALL


   This run was terminated on:  21:50:50  29Jan2024            

=------------------------------------------------------------------------------=
   JOB DONE.
=------------------------------------------------------------------------------=
